ITEM: TIMESTEP
99
ITEM: NUMBER OF ATOMS
11328
ITEM: BOX BOUNDS xy xz yz pp pp pp
0.0000000000000000e+00 8.0004699707000000e+01 0.0000000000000000e+00
0.0000000000000000e+00 1.6866399765000001e+01 0.0000000000000000e+00
0.0000000000000000e+00 7.7496597289999997e+01 0.0000000000000000e+00
ITEM: ATOMS id x y z c_s[1] c_s[2] c_s[3] c_s[4] c_s[5] c_s[6] c_s[7] c_s[8] c_s[9] c_s[10]
1 74.0139 16.8544 62.8362 0 0 0 1 0 0 0 0.129567 0.0178691 0.0343
2 74.0139 16.8544 24.0879 0 0 0 1 0 0 0 0.129567 0.0178669 0.0343077
3 74.0139 8.42122 62.8362 0 0 0 1 0 0 0 0.129567 0.0178686 0.0343
4 74.0139 8.42122 24.0879 0 0 0 1 0 0 0 0.129568 0.0178664 0.0343081
5 63.3461 16.8544 68.1699 0 0 0 1 0 0 0 -0.00470454 -9.32684e-05 0.0118696
6 63.3461 16.8544 29.4216 0 0 0 1 0 0 0 -0.00470462 -9.3056e-05 0.0118552
7 63.3461 8.42122 68.1699 0 0 0 1 0 0 0 -0.00470454 -9.38125e-05 0.0118696
8 63.3461 8.42122 29.4216 0 0 0 1 0 0 0 -0.00470462 -9.36004e-05 0.0118552
9 79.3471 16.8544 73.5036 0 0 0 1 0 0 0 -0.104552 -0.035064 -0.607433
10 79.3471 16.8544 34.7553 0 0 0 1 0 0 0 -0.104549 -0.0350635 -0.607426
11 79.3471 8.42122 73.5036 0 0 0 1 0 0 0 -0.104552 -0.0350644 -0.607433
12 79.3471 8.42122 34.7553 0 0 0 1 0 0 0 -0.104549 -0.035064 -0.607426
13 59.3459 16.8544 60.1695 0 0 0 1 0 0 0 0.779848 -0.00895973 -0.777951
14 59.3459 16.8544 21.4212 0 0 0 1 0 0 0 0.779846 -0.00896233 -0.777957
15 59.3459 8.42122 60.1695 0 0 0 1 0 0 0 0.779848 -0.00896002 -0.777951
16 59.3459 8.42122 21.4212 0 0 0 1 0 0 0 0.779846 -0.0089626 -0.777957
17 75.3468 16.8544 65.5032 0 0 0 1 0 0 0 0.0322961 0.00549733 0.222254
18 75.3468 16.8544 26.7549 0 0 0 1 0 0 0 0.032297 0.00549701 0.222267
19 75.3468 8.42122 65.5032 0 0 0 1 0 0 0 0.0322961 0.00549678 0.222254
20 75.3468 8.42122 26.7549 0 0 0 1 0 0 0 0.032297 0.00549646 0.222267
21 64.6798 16.8544 70.8369 0 0 0 1 0 0 0 0.0308695 -0.00572473 0.118421
22 64.6798 16.8544 32.0886 0 0 0 1 0 0 0 0.0308716 -0.00572428 0.118382
23 64.6798 8.42122 70.8369 0 0 0 1 0 0 0 0.0308695 -0.00572523 0.118421
24 64.6798 8.42122 32.0886 0 0 0 1 0 0 0 0.0308717 -0.00572478 0.118382
25 11.3431 2.09632 0.00736 1.2737 0.0412331 -0.999146 -0.00279748 12.765 -309.371 -0.864154 -0.0517873 0.0747662 -0.0016628
26 11.3431 10.5295 0.00736 1.2737 0.0412331 -0.999146 -0.00279747 12.765 -309.371 -0.864157 -0.0517875 0.0747651 -0.0016628
27 24.6775 2.09632 0.00736 1.2737 0.0390949 -0.999231 -0.00285989 12.0841 -308.911 -0.881534 -0.0520813 0.0747467 -0.00166665
28 24.6775 10.5295 0.00736 1.2737 0.039095 -0.999231 -0.00285996 12.0841 -308.912 -0.881548 -0.0520815 0.0747457 -0.00166665
29 4.67627 2.09632 0.00736 1.2737 0.0391156 -0.999231 -0.00286635 12.0905 -308.911 -0.883336 -0.0520301 0.0747439 -0.00166647
30 4.67627 10.5295 0.00736 1.2737 0.0391157 -0.999231 -0.00286638 12.0905 -308.911 -0.883342 -0.0520302 0.0747429 -0.00166647
31 18.0107 2.09632 0.00736 1.2737 0.0396872 -0.999208 -0.00291543 12.2719 -309.029 -0.89935 -0.0518932 0.0747336 -0.00166655
32 18.0107 10.5295 0.00736 1.2737 0.0396873 -0.999208 -0.00291545 12.272 -309.03 -0.899352 -0.0518934 0.0747326 -0.00166655
33 38.0118 2.09632 0.00736 1.2737 0.0397057 -0.999207 -0.00291312 12.2777 -309.027 -0.898607 -0.0518331 0.0747332 -0.00166656
34 38.0118 10.5295 0.00736 1.2737 0.0397058 -0.999207 -0.00291316 12.2777 -309.027 -0.898611 -0.0518333 0.0747321 -0.00166656
35 51.3454 2.09632 0.00736 1.2737 0.0412309 -0.999146 -0.00278303 12.7644 -309.371 -0.859823 -0.0517868 0.0747669 -0.00166295
36 51.3454 10.5295 0.00736 1.2737 0.0412309 -0.999146 -0.00278302 12.7644 -309.371 -0.859825 -0.051787 0.0747659 -0.00166295
37 31.3442 2.09632 0.00736 1.2737 0.0412176 -0.999146 -0.00281926 12.7599 -309.362 -0.870554 -0.051756 0.0747678 -0.00166254
38 31.3442 10.5295 0.00736 1.2737 0.0412176 -0.999146 -0.00281923 12.7599 -309.362 -0.870557 -0.0517562 0.0747668 -0.00166254
39 44.6786 2.09632 0.00736 1.2737 0.0391025 -0.999231 -0.00287858 12.0864 -308.907 -0.887095 -0.0520295 0.0747438 -0.00166637
40 44.6786 10.5295 0.00736 1.2737 0.0391026 -0.999231 -0.00287867 12.0864 -308.907 -0.887111 -0.0520297 0.0747428 -0.00166637
41 64.6798 2.09632 0.00736 1.2737 0.0391028 -0.999231 -0.00292849 12.0865 -308.912 -0.901871 -0.0520738 0.0747464 -0.00166594
42 64.6798 10.5295 0.00736 1.2737 0.0391029 -0.999231 -0.00292854 12.0866 -308.912 -0.901885 -0.0520739 0.0747454 -0.00166594
43 78.0142 2.09632 0.00736 1.2737 0.0396937 -0.999208 -0.00289652 12.274 -309.026 -0.893734 -0.051868 0.0747325 -0.00166688
44 78.0142 10.5295 0.00736 1.2737 0.0396938 -0.999208 -0.00289653 12.274 -309.026 -0.893738 -0.0518683 0.0747315 -0.00166688
45 58.013 2.09632 0.00736 1.2737 0.0396764 -0.999208 -0.00289113 12.2686 -309.026 -0.892093 -0.0518954 0.0747341 -0.00166683
46 58.013 10.5295 0.00736 1.2737 0.0396766 -0.999208 -0.00289115 12.2687 -309.026 -0.892097 -0.0518956 0.0747331 -0.00166683
47 71.3466 2.09632 0.00736 1.2737 0.041203 -0.999147 -0.00277586 12.7556 -309.367 -0.857709 -0.0518132 0.0747688 -0.00166292
48 71.3466 10.5295 0.00736 1.2737 0.0412031 -0.999147 -0.00277578 12.7556 -309.367 -0.857697 -0.0518134 0.0747678 -0.00166292
49 9.34295 8.42122 0.67383 1.2737 -0.0208065 -0.982623 -0.184443 22.5168 1063.43 199.611 -1.25545 -0.254722 -0.182593
50 9.34295 16.8544 0.67383 1.2737 -0.0208065 -0.982623 -0.184443 22.5168 1063.43 199.611 -1.25545 -0.254723 -0.182593
51 22.6773 8.42122 0.67383 1.2737 -0.0211327 -0.982565 -0.184717 22.8667 1063.23 199.881 -1.25996 -0.255306 -0.181549
52 22.6773 16.8544 0.67383 1.2737 -0.0211327 -0.982565 -0.184717 22.8667 1063.23 199.881 -1.25996 -0.255307 -0.181548
53 16.0105 8.42122 0.67383 1.2737 -0.0208525 -0.982611 -0.184502 22.5592 1063.08 199.612 -1.26095 -0.254873 -0.182706
54 16.0105 16.8544 0.67383 1.2737 -0.0208525 -0.982611 -0.184502 22.5592 1063.08 199.612 -1.26095 -0.254874 -0.182706
55 2.67616 8.42122 0.67383 1.2737 -0.0211302 -0.982565 -0.184716 22.8638 1063.22 199.88 -1.26004 -0.255309 -0.181526
56 2.67616 16.8544 0.67383 1.2737 -0.0211302 -0.982565 -0.184716 22.8638 1063.22 199.88 -1.26004 -0.255311 -0.181526
57 36.0117 8.42122 0.67383 1.2737 -0.0208528 -0.982611 -0.184501 22.5595 1063.08 199.61 -1.26101 -0.254881 -0.182699
58 36.0117 16.8544 0.67383 1.2737 -0.0208528 -0.982611 -0.184501 22.5595 1063.08 199.61 -1.26101 -0.254882 -0.182699
59 49.3453 8.42122 0.67383 1.2737 -0.0208079 -0.982623 -0.184441 22.5184 1063.43 199.608 -1.25545 -0.254718 -0.1826
60 49.3453 16.8544 0.67383 1.2737 -0.0208078 -0.982623 -0.184441 22.5182 1063.43 199.608 -1.25545 -0.254719 -0.1826
61 42.6785 8.42122 0.67383 1.2737 -0.0211314 -0.982565 -0.184717 22.8654 1063.23 199.881 -1.26005 -0.255313 -0.181514
62 42.6785 16.8544 0.67383 1.2737 -0.0211314 -0.982565 -0.184717 22.8654 1063.23 199.881 -1.26005 -0.255315 -0.181513
63 29.3441 8.42122 0.67383 1.2737 -0.0208078 -0.982622 -0.184446 22.5183 1063.44 199.615 -1.25539 -0.25473 -0.182614
64 29.3441 16.8544 0.67383 1.2737 -0.0208078 -0.982622 -0.184446 22.5183 1063.44 199.615 -1.25539 -0.254731 -0.182613
65 62.6797 8.42122 0.67383 1.2737 -0.0211303 -0.982565 -0.184715 22.8642 1063.23 199.88 -1.25995 -0.255305 -0.181553
66 62.6797 16.8544 0.67383 1.2737 -0.0211304 -0.982565 -0.184715 22.8642 1063.23 199.88 -1.25995 -0.255307 -0.181552
67 76.0141 8.42122 0.67383 1.2737 -0.020854 -0.98261 -0.184507 22.5609 1063.08 199.618 -1.26091 -0.254885 -0.182719
68 76.0141 16.8544 0.67383 1.2737 -0.020854 -0.98261 -0.184507 22.561 1063.08 199.618 -1.26091 -0.254887 -0.182719
69 69.3465 8.42122 0.67383 1.2737 -0.0208116 -0.982623 -0.184445 22.5224 1063.43 199.613 -1.25537 -0.254723 -0.182639
70 69.3465 16.8544 0.67383 1.2737 -0.0208117 -0.982623 -0.184445 22.5224 1063.43 199.613 -1.25537 -0.254725 -0.182638
71 56.0129 8.42122 0.67383 1.2737 -0.0208561 -0.982611 -0.184503 22.5632 1063.08 199.612 -1.26096 -0.254873 -0.182699
72 56.0129 16.8544 0.67383 1.2737 -0.0208561 -0.982611 -0.184503 22.5632 1063.08 199.612 -1.26096 -0.254875 -0.182699
73 14.0104 6.31292 1.3403 1.2737 0.909996 -0.199246 0.363603 -37.3622 8.17982 -14.9285 0.0240582 0.0193376 -0.187134
74 14.0104 14.7461 1.3403 1.2737 0.909997 -0.199246 0.363603 -37.362 8.17972 -14.9285 0.0240582 0.0193367 -0.187133
75 0.67604 6.31292 1.3403 1.2737 0.909923 -0.199783 0.363494 -36.2393 7.95572 -14.4775 0.0256155 0.0193064 -0.186115
76 0.67604 14.7461 1.3403 1.2737 0.909923 -0.199782 0.363494 -36.2392 7.95567 -14.4774 0.0256156 0.0193055 -0.186115
77 7.34283 6.31292 1.3403 1.2737 0.910426 -0.198809 0.362766 -37.0122 8.08089 -14.748 0.0275546 0.0193324 -0.185776
78 7.34283 14.7461 1.3403 1.2737 0.910426 -0.198809 0.362767 -37.0118 8.0808 -14.7479 0.0275547 0.0193316 -0.185775
79 20.6772 6.31292 1.3403 1.2737 0.909919 -0.199801 0.363491 -36.2347 7.95543 -14.4753 0.0256669 0.0193056 -0.186131
80 20.6772 14.7461 1.3403 1.2737 0.909919 -0.199801 0.363492 -36.2344 7.95534 -14.4752 0.025667 0.0193047 -0.186131
81 40.6784 6.31292 1.3403 1.2737 0.909919 -0.199792 0.363497 -36.2351 7.95516 -14.4755 0.0256286 0.0193073 -0.186115
82 40.6784 14.7461 1.3403 1.2737 0.909919 -0.199791 0.363497 -36.2347 7.95507 -14.4754 0.0256287 0.0193065 -0.186115
83 27.344 6.31292 1.3403 1.2737 0.910423 -0.198813 0.362771 -37.019 8.08267 -14.7511 0.0274971 0.0193298 -0.185801
84 27.344 14.7461 1.3403 1.2737 0.910423 -0.198812 0.362771 -37.0188 8.08264 -14.7511 0.0274972 0.0193289 -0.185801
85 34.0116 6.31292 1.3403 1.2737 0.909997 -0.199236 0.363607 -37.376 8.18251 -14.9342 0.0239978 0.019338 -0.187134
86 34.0116 14.7461 1.3403 1.2737 0.909997 -0.199236 0.363607 -37.3758 8.18244 -14.9341 0.0239979 0.0193371 -0.187134
87 47.3452 6.31292 1.3403 1.2737 0.910424 -0.198812 0.362769 -37.0091 8.0805 -14.7471 0.0275463 0.0193321 -0.185778
88 47.3452 14.7461 1.3403 1.2737 0.910424 -0.198812 0.362769 -37.0089 8.08047 -14.7471 0.0275464 0.0193313 -0.185778
89 67.3464 6.31292 1.3403 1.2737 0.91042 -0.198822 0.362774 -37.0154 8.08222 -14.7499 0.0275009 0.0193284 -0.1858
90 67.3464 14.7461 1.3403 1.2737 0.91042 -0.198822 0.362774 -37.0152 8.08215 -14.7498 0.027501 0.0193275 -0.1858
91 54.0128 6.31292 1.3403 1.2737 0.909997 -0.199248 0.363601 -37.3645 8.18036 -14.9293 0.0240619 0.0193375 -0.187136
92 54.0128 14.7461 1.3403 1.2737 0.909997 -0.199248 0.363601 -37.3641 8.18026 -14.9292 0.024062 0.0193367 -0.187136
93 60.6796 6.31292 1.3403 1.2737 0.909921 -0.199791 0.363493 -36.2355 7.9552 -14.4758 0.0256562 0.0193057 -0.186108
94 60.6796 14.7461 1.3403 1.2737 0.909921 -0.199791 0.363493 -36.2352 7.95513 -14.4757 0.0256563 0.0193049 -0.186108
95 74.0139 6.31292 1.3403 1.2737 0.909998 -0.199243 0.363601 -37.3705 8.18144 -14.9317 0.0240286 0.0193375 -0.187138
96 74.0139 14.7461 1.3403 1.2737 0.909998 -0.199243 0.363601 -37.3703 8.18137 -14.9316 0.0240287 0.0193366 -0.187138
97 12.0103 4.20462 2.00716 1.2737 -0.188465 -0.770572 -0.608851 90.9468 371.753 293.758 0.613082 0.0442323 -0.140282
98 12.0103 12.6378 2.00716 1.2737 -0.188465 -0.770572 -0.608851 90.9465 371.753 293.758 0.613081 0.0442313 -0.140282
99 25.3439 4.20462 2.00716 1.2737 -0.187277 -0.77114 -0.608498 90.4556 372.585 293.969 0.616666 0.0443163 -0.137658
100 25.3439 12.6378 2.00716 1.2737 -0.187278 -0.77114 -0.608498 90.4557 372.584 293.969 0.616666 0.0443153 -0.137658
101 18.6771 4.20462 2.00716 1.2737 -0.18714 -0.771124 -0.608561 90.393 372.635 294.035 0.614988 0.0442134 -0.138147
102 18.6771 12.6378 2.00716 1.2737 -0.18714 -0.771124 -0.608561 90.3931 372.635 294.035 0.614988 0.0442124 -0.138147
103 5.34271 4.20462 2.00716 1.2737 -0.187261 -0.771146 -0.608496 90.4495 372.592 293.973 0.616757 0.044318 -0.13764
104 5.34271 12.6378 2.00716 1.2737 -0.187261 -0.771146 -0.608496 90.4495 372.592 293.973 0.616757 0.044317 -0.13764
105 38.6783 4.20462 2.00716 1.2737 -0.187122 -0.771132 -0.608557 90.3818 372.636 294.029 0.61506 0.0442132 -0.138109
106 38.6783 12.6378 2.00716 1.2737 -0.187122 -0.771132 -0.608557 90.3819 372.636 294.029 0.61506 0.0442122 -0.138109
107 52.0127 4.20462 2.00716 1.2737 -0.188461 -0.770572 -0.608852 90.9427 371.756 293.758 0.613081 0.0442323 -0.140275
108 52.0127 12.6378 2.00716 1.2737 -0.188461 -0.770572 -0.608852 90.9425 371.756 293.757 0.613081 0.0442313 -0.140275
109 45.3451 4.20462 2.00716 1.2737 -0.18726 -0.771146 -0.608496 90.4492 372.592 293.973 0.616751 0.0443179 -0.137642
110 45.3451 12.6378 2.00716 1.2737 -0.18726 -0.771146 -0.608496 90.4492 372.592 293.973 0.616751 0.0443168 -0.137642
111 32.0115 4.20462 2.00716 1.2737 -0.188466 -0.770571 -0.608852 90.9462 371.743 293.752 0.613131 0.0442334 -0.140269
112 32.0115 12.6378 2.00716 1.2737 -0.188466 -0.770572 -0.608851 90.9456 371.743 293.751 0.61313 0.0442325 -0.140269
113 65.3462 4.20462 2.00716 1.2737 -0.187271 -0.771137 -0.608504 90.4542 372.589 293.977 0.616692 0.044317 -0.137659
114 65.3462 12.6378 2.00716 1.2737 -0.187271 -0.771137 -0.608504 90.4542 372.589 293.977 0.616692 0.044316 -0.137659
115 78.6806 4.20462 2.00716 1.2737 -0.187137 -0.771123 -0.608563 90.3901 372.63 294.032 0.615038 0.0442139 -0.138145
116 78.6806 12.6378 2.00716 1.2737 -0.187137 -0.771123 -0.608563 90.3901 372.63 294.032 0.615038 0.0442129 -0.138145
117 72.0138 4.20462 2.00716 1.2737 -0.188464 -0.770571 -0.608852 90.9458 371.751 293.757 0.613133 0.0442311 -0.140271
118 72.0138 12.6378 2.00716 1.2737 -0.188464 -0.770571 -0.608852 90.9456 371.75 293.756 0.613133 0.0442301 -0.140271
119 58.6795 4.20462 2.00716 1.2737 -0.187141 -0.771123 -0.608562 90.3954 372.634 294.038 0.614999 0.0442124 -0.138144
120 58.6795 12.6378 2.00716 1.2737 -0.187141 -0.771123 -0.608562 90.3953 372.634 294.038 0.614999 0.0442114 -0.138144
121 10.0102 2.09632 2.67402 1.2737 0.884957 0.0459221 0.463403 619.5 32.1498 324.398 0.0115905 0.00911815 -0.145739
122 10.0102 10.5295 2.67402 1.2737 0.884957 0.0459225 0.463403 619.5 32.1501 324.398 0.0115906 0.00911676 -0.145739
123 23.3438 2.09632 2.67402 1.2737 0.884968 0.0463104 0.463343 620.187 32.4571 324.712 0.0136773 0.00909351 -0.144826
124 23.3438 10.5295 2.67402 1.2737 0.884968 0.0463109 0.463343 620.187 32.4574 324.712 0.0136774 0.00909212 -0.144826
125 16.677 2.09632 2.67402 1.2737 0.884871 0.0463487 0.463524 620.359 32.4965 324.965 0.0120693 0.00909852 -0.145834
126 16.677 10.5295 2.67402 1.2737 0.884871 0.046349 0.463524 620.359 32.4968 324.965 0.0120694 0.00909712 -0.145833
127 3.3426 2.09632 2.67402 1.2737 0.884966 0.0463108 0.463348 620.182 32.4575 324.714 0.0136108 0.00909425 -0.144822
128 3.3426 10.5295 2.67402 1.2737 0.884966 0.0463111 0.463348 620.182 32.4577 324.714 0.0136109 0.00909284 -0.144822
129 36.6782 2.09632 2.67402 1.2737 0.884868 0.0463562 0.463529 620.364 32.5021 324.972 0.0121249 0.00909922 -0.145841
130 36.6782 10.5295 2.67402 1.2737 0.884868 0.0463565 0.463529 620.364 32.5023 324.972 0.012125 0.00909782 -0.145841
131 50.0125 2.09632 2.67402 1.2737 0.884956 0.0459182 0.463405 619.499 32.1471 324.399 0.011593 0.00911805 -0.145745
132 50.0125 10.5295 2.67402 1.2737 0.884956 0.0459186 0.463405 619.499 32.1473 324.399 0.0115931 0.00911666 -0.145745
133 43.3449 2.09632 2.67402 1.2737 0.884967 0.0463109 0.463346 620.184 32.4574 324.713 0.0136039 0.00909411 -0.144821
134 43.3449 10.5295 2.67402 1.2737 0.884967 0.0463114 0.463346 620.184 32.4578 324.713 0.013604 0.00909272 -0.144821
135 30.0114 2.09632 2.67402 1.2737 0.884959 0.0459203 0.463399 619.51 32.149 324.4 0.0116512 0.00911742 -0.145739
136 30.0114 10.5295 2.67402 1.2737 0.884959 0.0459207 0.463399 619.51 32.1493 324.4 0.0116513 0.00911604 -0.145739
137 63.3461 2.09632 2.67402 1.2737 0.884965 0.0462984 0.46335 620.187 32.449 324.718 0.0136737 0.00909326 -0.144822
138 63.3461 10.5295 2.67402 1.2737 0.884965 0.0462988 0.46335 620.187 32.4493 324.718 0.0136738 0.00909187 -0.144822
139 76.6805 2.09632 2.67402 1.2737 0.884872 0.0463582 0.463522 620.354 32.5029 324.961 0.0120152 0.00909891 -0.145822
140 76.6805 10.5295 2.67402 1.2737 0.884872 0.0463586 0.463522 620.354 32.5031 324.961 0.0120152 0.00909751 -0.145822
141 70.0137 2.09632 2.67402 1.2737 0.884961 0.0459182 0.463396 619.503 32.1472 324.394 0.0116592 0.00911711 -0.145752
142 70.0137 10.5295 2.67402 1.2737 0.884961 0.0459186 0.463396 619.503 32.1475 324.394 0.0116593 0.00911572 -0.145752
143 56.6793 2.09632 2.67402 1.2737 0.884871 0.0463614 0.463523 620.355 32.5051 324.962 0.0120566 0.00909946 -0.145847
144 56.6793 10.5295 2.67402 1.2737 0.884871 0.0463618 0.463523 620.355 32.5054 324.962 0.0120567 0.00909807 -0.145847
145 21.3437 8.42122 3.34049 1.2737 0.422422 -0.881486 0.211049 -12.2178 25.4946 -6.10451 0.0760772 0.0231678 0.383183
146 21.3437 16.8544 3.34049 1.2737 0.422422 -0.881486 0.211049 -12.2178 25.4948 -6.10455 0.076077 0.0231665 0.383182
147 8.01007 8.42122 3.34049 1.2737 0.422475 -0.881279 0.211807 -12.1732 25.3919 -6.10312 0.0746594 0.02312 0.380965
148 8.01007 16.8544 3.34049 1.2737 0.422475 -0.881279 0.211807 -12.1732 25.3921 -6.10316 0.0746592 0.0231186 0.380964
149 14.6769 8.42122 3.34049 1.2737 0.423018 -0.881026 0.211775 -12.2299 25.4693 -6.1228 0.0750375 0.0231541 0.382325
150 14.6769 16.8544 3.34049 1.2737 0.423018 -0.881026 0.211775 -12.23 25.4695 -6.12286 0.0750373 0.0231527 0.382325
151 1.34248 8.42122 3.34049 1.2737 0.422431 -0.881481 0.211053 -12.2172 25.4928 -6.10438 0.0760174 0.0231663 0.383205
152 1.34248 16.8544 3.34049 1.2737 0.42243 -0.881481 0.211053 -12.2173 25.493 -6.10443 0.0760172 0.023165 0.383205
153 48.0124 8.42122 3.34049 1.2737 0.422472 -0.881281 0.211806 -12.1739 25.3933 -6.10326 0.0746419 0.0231201 0.380957
154 48.0124 16.8544 3.34049 1.2737 0.422472 -0.881281 0.211806 -12.174 25.3935 -6.1033 0.0746417 0.0231187 0.380956
155 34.678 8.42122 3.34049 1.2737 0.423021 -0.881023 0.211781 -12.2305 25.4706 -6.12333 0.0749543 0.0231549 0.382326
156 34.678 16.8544 3.34049 1.2737 0.423021 -0.881023 0.211781 -12.2306 25.4707 -6.12339 0.0749541 0.0231535 0.382326
157 41.3448 8.42122 3.34049 1.2737 0.422435 -0.88148 0.211048 -12.2159 25.4896 -6.10328 0.0760178 0.0231664 0.383204
158 41.3448 16.8544 3.34049 1.2737 0.422435 -0.88148 0.211048 -12.216 25.4898 -6.10333 0.0760177 0.023165 0.383204
159 28.0113 8.42122 3.34049 1.2737 0.422488 -0.881275 0.2118 -12.179 25.403 -6.10546 0.0745926 0.0231218 0.380959
160 28.0113 16.8544 3.34049 1.2737 0.422487 -0.881275 0.2118 -12.1791 25.4032 -6.10552 0.0745924 0.0231204 0.380958
161 74.6804 8.42122 3.34049 1.2737 0.423019 -0.881026 0.211775 -12.2309 25.4714 -6.12344 0.0749681 0.0231544 0.382324
162 74.6804 16.8544 3.34049 1.2737 0.423019 -0.881026 0.211775 -12.231 25.4716 -6.12348 0.074968 0.0231531 0.382324
163 61.346 8.42122 3.34049 1.2737 0.422425 -0.881485 0.211049 -12.2176 25.4938 -6.10438 0.0759745 0.0231657 0.383194
164 61.346 16.8544 3.34049 1.2737 0.422425 -0.881485 0.211049 -12.2177 25.494 -6.10441 0.0759743 0.0231643 0.383194
165 68.0136 8.42122 3.34049 1.2737 0.422475 -0.88128 0.211805 -12.1769 25.3995 -6.10493 0.0745845 0.0231229 0.380958
166 68.0136 16.8544 3.34049 1.2737 0.422475 -0.88128 0.211805 -12.177 25.3997 -6.10496 0.0745843 0.0231215 0.380958
167 54.6792 8.42122 3.34049 1.2737 0.423025 -0.881022 0.211778 -12.2314 25.4722 -6.12371 0.0750276 0.0231546 0.382325
168 54.6792 16.8544 3.34049 1.2737 0.423025 -0.881022 0.211778 -12.2315 25.4723 -6.12376 0.0750274 0.0231532 0.382324
169 12.6768 6.31292 4.00735 1.2737 0.831584 -0.519736 0.19581 383.23 -239.518 90.2379 0.0403131 -0.0379718 0.232956
170 12.6768 14.7461 4.00735 1.2737 0.831585 -0.519736 0.19581 383.23 -239.518 90.2378 0.0403131 -0.0379727 0.232956
171 26.0111 6.31292 4.00735 1.2737 0.831492 -0.520023 0.195443 383.185 -239.648 90.0678 0.0392472 -0.0379885 0.231861
172 26.0111 14.7461 4.00735 1.2737 0.831492 -0.520023 0.195443 383.185 -239.648 90.0679 0.0392472 -0.0379894 0.231861
173 19.3435 6.31292 4.00735 1.2737 0.831594 -0.52 0.195069 383.279 -239.667 89.9065 0.0414314 -0.0379996 0.233355
174 19.3435 14.7461 4.00735 1.2737 0.831594 -0.519999 0.195069 383.279 -239.667 89.9066 0.0414314 -0.0380005 0.233355
175 6.00995 6.31292 4.00735 1.2737 0.831488 -0.520026 0.195449 383.188 -239.653 90.0713 0.0393432 -0.0379896 0.231869
176 6.00995 14.7461 4.00735 1.2737 0.831489 -0.520026 0.195448 383.188 -239.652 90.0712 0.0393432 -0.0379906 0.231869
177 39.3447 6.31292 4.00735 1.2737 0.831594 -0.519998 0.195074 383.287 -239.671 89.9103 0.0414909 -0.0379994 0.233358
178 39.3447 14.7461 4.00735 1.2737 0.831594 -0.519998 0.195074 383.287 -239.671 89.9104 0.0414909 -0.0380004 0.233358
179 52.6791 6.31292 4.00735 1.2737 0.831588 -0.51973 0.195813 383.234 -239.516 90.2395 0.0403004 -0.0379716 0.232966
180 52.6791 14.7461 4.00735 1.2737 0.831588 -0.51973 0.195813 383.234 -239.516 90.2396 0.0403004 -0.0379725 0.232966
181 46.0123 6.31292 4.00735 1.2737 0.831486 -0.52003 0.195446 383.185 -239.653 90.0695 0.0393338 -0.0379897 0.231867
182 46.0123 14.7461 4.00735 1.2737 0.831486 -0.52003 0.195446 383.185 -239.653 90.0696 0.0393338 -0.0379906 0.231867
183 32.6779 6.31292 4.00735 1.2737 0.831582 -0.51974 0.195812 383.231 -239.521 90.239 0.0403405 -0.0379711 0.232955
184 32.6779 14.7461 4.00735 1.2737 0.831582 -0.51974 0.195812 383.231 -239.521 90.239 0.0403405 -0.037972 0.232955
185 66.0135 6.31292 4.00735 1.2737 0.831488 -0.520031 0.195434 383.181 -239.65 90.0628 0.03925 -0.0379889 0.231863
186 66.0135 14.7461 4.00735 1.2737 0.831488 -0.520031 0.195434 383.181 -239.65 90.0628 0.03925 -0.0379898 0.231863
187 79.3471 6.31292 4.00735 1.2737 0.831595 -0.519996 0.195075 383.284 -239.668 89.9101 0.0415074 -0.0379996 0.233357
188 79.3471 14.7461 4.00735 1.2737 0.831595 -0.519995 0.195075 383.284 -239.668 89.9101 0.0415074 -0.0380005 0.233357
189 72.6803 6.31292 4.00735 1.2737 0.831587 -0.519732 0.195809 383.235 -239.518 90.2383 0.0403536 -0.0379709 0.232946
190 72.6803 14.7461 4.00735 1.2737 0.831587 -0.519732 0.195809 383.235 -239.519 90.2384 0.0403536 -0.0379718 0.232946
191 59.3459 6.31292 4.00735 1.2737 0.831593 -0.52 0.195074 383.287 -239.672 89.9106 0.0415415 -0.0379998 0.233347
192 59.3459 14.7461 4.00735 1.2737 0.831593 -0.52 0.195074 383.287 -239.672 89.9106 0.0415415 -0.0380007 0.233347
193 24.011 4.20462 4.67421 1.2737 0.288869 -0.953746 0.0832089 28.8939 -95.3983 8.32213 0.0402424 -0.00140432 0.135416
194 24.011 12.6378 4.67421 1.2737 0.288869 -0.953746 0.0832087 28.8939 -95.3984 8.32213 0.0402425 -0.00140542 0.135416
195 10.6766 4.20462 4.67421 1.2737 0.288787 -0.953759 0.0833388 28.8725 -95.3565 8.33131 0.041166 -0.00136879 0.13593
196 10.6766 12.6378 4.67421 1.2737 0.288787 -0.953759 0.0833387 28.8725 -95.3566 8.33133 0.041166 -0.00136988 0.13593
197 17.3434 4.20462 4.67421 1.2737 0.288773 -0.953773 0.0832349 28.9282 -95.5477 8.33805 0.0425427 -0.00157957 0.136483
198 17.3434 12.6378 4.67421 1.2737 0.288773 -0.953772 0.0832349 28.9283 -95.5477 8.33806 0.0425428 -0.00158066 0.136483
199 4.00984 4.20462 4.67421 1.2737 0.288866 -0.953746 0.0832134 28.8903 -95.3872 8.32143 0.0401864 -0.00140063 0.13542
200 4.00984 12.6378 4.67421 1.2737 0.288866 -0.953746 0.0832139 28.8903 -95.3872 8.32137 0.0401864 -0.00140175 0.13542
201 50.679 4.20462 4.67421 1.2737 0.288792 -0.953758 0.0833418 28.8735 -95.3588 8.33192 0.0412665 -0.00137119 0.135928
202 50.679 12.6378 4.67421 1.2737 0.288792 -0.953758 0.083342 28.8736 -95.3588 8.3319 0.0412665 -0.00137229 0.135928
203 37.3446 4.20462 4.67421 1.2737 0.28877 -0.953773 0.0832385 28.9283 -95.5483 8.33849 0.0425973 -0.00158165 0.136484
204 37.3446 12.6378 4.67421 1.2737 0.28877 -0.953773 0.0832386 28.9283 -95.5484 8.33849 0.0425974 -0.00158275 0.136484
205 44.0122 4.20462 4.67421 1.2737 0.288869 -0.953746 0.0832104 28.8906 -95.3873 8.32135 0.0401811 -0.0014007 0.135419
206 44.0122 12.6378 4.67421 1.2737 0.288869 -0.953746 0.0832103 28.8906 -95.3874 8.32135 0.0401811 -0.0014018 0.135419
207 30.6778 4.20462 4.67421 1.2737 0.288788 -0.953759 0.08334 28.873 -95.3579 8.33165 0.0412407 -0.00137119 0.135947
208 30.6778 12.6378 4.67421 1.2737 0.288789 -0.953759 0.0833401 28.8731 -95.3579 8.33164 0.0412407 -0.0013723 0.135947
209 77.347 4.20462 4.67421 1.2737 0.288779 -0.953771 0.0832297 28.9284 -95.5458 8.33739 0.0424954 -0.00157834 0.136494
210 77.347 12.6378 4.67421 1.2737 0.288779 -0.953771 0.0832295 28.9284 -95.5459 8.3374 0.0424954 -0.00157943 0.136494
211 64.0134 4.20462 4.67421 1.2737 0.288866 -0.953747 0.0832072 28.8928 -95.3952 8.32173 0.0402437 -0.00140321 0.135425
212 64.0134 12.6378 4.67421 1.2737 0.288867 -0.953747 0.0832072 28.8928 -95.3953 8.32173 0.0402437 -0.00140431 0.135425
213 70.6801 4.20462 4.67421 1.2737 0.288792 -0.953758 0.0833418 28.8737 -95.359 8.332 0.0412263 -0.00137222 0.135951
214 70.6801 12.6378 4.67421 1.2737 0.288792 -0.953758 0.0833417 28.8737 -95.3591 8.33201 0.0412263 -0.00137331 0.135951
215 57.3458 4.20462 4.67421 1.2737 0.28878 -0.953771 0.0832299 28.9281 -95.5443 8.33736 0.0425255 -0.00157862 0.136476
216 57.3458 12.6378 4.67421 1.2737 0.28878 -0.953771 0.0832298 28.9281 -95.5444 8.33735 0.0425255 -0.0015797 0.136477
217 22.0109 2.09632 5.34068 1.2737 0.793317 -0.575746 0.197901 63.7067 -46.2357 15.893 0.0668039 -0.0404293 0.257786
218 22.0109 10.5295 5.34068 1.2737 0.793317 -0.575746 0.197902 63.7069 -46.2358 15.8931 0.066804 -0.0404309 0.257786
219 8.67651 2.09632 5.34068 1.2737 0.793419 -0.575623 0.197849 63.6871 -46.2056 15.882 0.0682338 -0.0404275 0.258615
220 8.67651 10.5295 5.34068 1.2737 0.793419 -0.575623 0.197849 63.6873 -46.2057 15.882 0.0682339 -0.0404291 0.258615
221 15.3433 2.09632 5.34068 1.2737 0.793406 -0.575611 0.197937 63.7517 -46.2525 15.9049 0.0696866 -0.0405055 0.259112
222 15.3433 10.5295 5.34068 1.2737 0.793406 -0.575611 0.197937 63.7519 -46.2527 15.9049 0.0696866 -0.0405071 0.259112
223 2.00972 2.09632 5.34068 1.2737 0.793317 -0.575745 0.197902 63.7044 -46.2339 15.8924 0.0667113 -0.0404286 0.257785
224 2.00972 10.5295 5.34068 1.2737 0.793317 -0.575745 0.197902 63.7046 -46.234 15.8925 0.0667113 -0.0404302 0.257785
225 48.6789 2.09632 5.34068 1.2737 0.79342 -0.575622 0.197847 63.6852 -46.2041 15.8816 0.0682244 -0.0404269 0.258619
226 48.6789 10.5295 5.34068 1.2737 0.79342 -0.575622 0.197846 63.6854 -46.2042 15.8816 0.0682244 -0.0404285 0.258619
227 35.3445 2.09632 5.34068 1.2737 0.793407 -0.57561 0.197935 63.7475 -46.2495 15.9036 0.069699 -0.0405047 0.259114
228 35.3445 10.5295 5.34068 1.2737 0.793407 -0.57561 0.197935 63.7477 -46.2496 15.9037 0.069699 -0.0405063 0.259114
229 42.0121 2.09632 5.34068 1.2737 0.793318 -0.575745 0.1979 63.7049 -46.2343 15.8925 0.0667076 -0.0404287 0.257783
230 42.0121 10.5295 5.34068 1.2737 0.793318 -0.575745 0.1979 63.7051 -46.2344 15.8926 0.0667077 -0.0404303 0.257783
231 28.6777 2.09632 5.34068 1.2737 0.793419 -0.575624 0.197845 63.6816 -46.2017 15.8805 0.0682906 -0.040427 0.258614
232 28.6777 10.5295 5.34068 1.2737 0.793419 -0.575624 0.197845 63.6817 -46.2018 15.8806 0.0682907 -0.0404286 0.258614
233 75.3468 2.09632 5.34068 1.2737 0.793406 -0.575612 0.197936 63.7498 -46.2514 15.9042 0.0697289 -0.040505 0.259094
234 75.3468 10.5295 5.34068 1.2737 0.793406 -0.575612 0.197936 63.75 -46.2515 15.9043 0.0697289 -0.0405066 0.259094
235 62.0132 2.09632 5.34068 1.2737 0.793317 -0.575747 0.197896 63.7083 -46.2369 15.8931 0.0667807 -0.0404294 0.257788
236 62.0132 10.5295 5.34068 1.2737 0.793317 -0.575747 0.197896 63.7084 -46.237 15.8931 0.0667807 -0.040431 0.257788
237 68.68 2.09632 5.34068 1.2737 0.793417 -0.575625 0.197851 63.6833 -46.203 15.8813 0.0682987 -0.0404272 0.258618
238 68.68 10.5295 5.34068 1.2737 0.793417 -0.575625 0.197851 63.6835 -46.2031 15.8813 0.0682988 -0.0404288 0.258619
239 55.3456 2.09632 5.34068 1.2737 0.793406 -0.57561 0.197939 63.7504 -46.2517 15.9047 0.0696592 -0.0405051 0.259113
240 55.3456 10.5295 5.34068 1.2737 0.793406 -0.57561 0.197939 63.7506 -46.2518 15.9048 0.0696593 -0.0405067 0.259113
241 20.0108 8.42122 6.00754 1.2737 0.437579 -0.86252 -0.254133 52.7027 -103.882 -30.6088 0.0379909 -0.0212033 0.175198
242 20.0108 16.8544 6.00754 1.2737 0.437579 -0.86252 -0.254133 52.7026 -103.882 -30.6087 0.0379909 -0.0212049 0.175198
243 6.67639 8.42122 6.00754 1.2737 0.437266 -0.862512 -0.254699 52.6114 -103.777 -30.6463 0.0393069 -0.0212827 0.176186
244 6.67639 16.8544 6.00754 1.2737 0.437266 -0.862512 -0.254698 52.6113 -103.777 -30.6463 0.0393069 -0.0212843 0.176185
245 0.0096 8.42122 6.00754 1.2737 0.437574 -0.862524 -0.254129 52.705 -103.889 -30.6101 0.0380566 -0.0212058 0.175209
246 0.0096 16.8544 6.00754 1.2737 0.437574 -0.862524 -0.254129 52.705 -103.888 -30.61 0.0380566 -0.0212074 0.175209
247 13.3432 8.42122 6.00754 1.2737 0.437489 -0.862398 -0.254702 52.6789 -103.843 -30.6705 0.0405485 -0.0213856 0.176823
248 13.3432 16.8544 6.00754 1.2737 0.43749 -0.862398 -0.254702 52.6789 -103.843 -30.6705 0.0405485 -0.0213872 0.176822
249 46.6787 8.42122 6.00754 1.2737 0.437268 -0.86251 -0.254701 52.6108 -103.775 -30.6459 0.039293 -0.0212826 0.176189
250 46.6787 16.8544 6.00754 1.2737 0.437268 -0.86251 -0.2547 52.6107 -103.775 -30.6458 0.0392929 -0.0212842 0.176189
251 33.3444 8.42122 6.00754 1.2737 0.4375 -0.862393 -0.2547 52.6794 -103.841 -30.67 0.0404584 -0.0213849 0.176838
252 33.3444 16.8544 6.00754 1.2737 0.4375 -0.862393 -0.2547 52.6793 -103.841 -30.67 0.0404584 -0.0213865 0.176838
253 26.6776 8.42122 6.00754 1.2737 0.437277 -0.862507 -0.254699 52.6087 -103.769 -30.6439 0.0392105 -0.0212799 0.176178
254 26.6776 16.8544 6.00754 1.2737 0.437277 -0.862507 -0.254699 52.6086 -103.769 -30.6439 0.0392105 -0.0212815 0.176178
255 40.0119 8.42122 6.00754 1.2737 0.43757 -0.862523 -0.254138 52.7072 -103.894 -30.6126 0.0380533 -0.0212052 0.175201
256 40.0119 16.8544 6.00754 1.2737 0.43757 -0.862523 -0.254138 52.7072 -103.893 -30.6126 0.0380533 -0.0212067 0.175201
257 73.3467 8.42122 6.00754 1.2737 0.437504 -0.862391 -0.254701 52.6798 -103.841 -30.67 0.0404812 -0.0213838 0.176815
258 73.3467 16.8544 6.00754 1.2737 0.437504 -0.862391 -0.254701 52.6797 -103.841 -30.67 0.0404812 -0.0213854 0.176815
259 60.0131 8.42122 6.00754 1.2737 0.437567 -0.862526 -0.254134 52.704 -103.889 -30.6106 0.0381002 -0.0212051 0.175189
260 60.0131 16.8544 6.00754 1.2737 0.437567 -0.862526 -0.254134 52.7039 -103.888 -30.6106 0.0381002 -0.0212067 0.175189