
11520 atoms
2 atom types
   0.0000000000   80.0046997070 xlo xhi
   0.0000000000   16.8663997650 ylo yhi
   0.0000000000   77.4965972900 zlo zhi
   0.0000000000    0.0000000000    0.0000000000 xy xz yz

Masses

1 58.690000
2 16.000000

Atoms # spin

     1      1   11.34307000 	2.09632000 	0.00736000      -0.51638874 -0.81647984 -0.25826989  1.2737  
     2      1   11.34307000 	10.52952000 	0.00736000    -0.51638874 -0.81647984 -0.25826989  1.2737  
     3      1   24.67745000 	2.09632000 	0.00736000      -0.51638874 -0.81647984 -0.25826989  1.2737
     4      1   24.67745000 	10.52952000 	0.00736000    -0.51638874 -0.81647984 -0.25826989  1.2737
     5      1   4.67627000 	2.09632000 	0.00736000        -0.51638874 -0.81647984 -0.25826989  1.2737
     6      1   4.67627000 	10.52952000 	0.00736000      -0.51638874 -0.81647984 -0.25826989  1.2737
     7      1   18.01066000 	2.09632000 	0.00736000      -0.51638874 -0.81647984 -0.25826989  1.2737
     8      1   18.01066000 	10.52952000 	0.00736000    -0.51638874 -0.81647984 -0.25826989  1.2737
     9      1   38.01183000 	2.09632000 	0.00736000      -0.51638874 -0.81647984 -0.25826989  1.2737
    10      1   38.01183000 	10.52952000 	0.00736000    -0.51638874 -0.81647984 -0.25826989  1.2737
    11      1   51.34542000 	2.09632000 	0.00736000      -0.51638874 -0.81647984 -0.25826989  1.2737
    12      1   51.34542000 	10.52952000 	0.00736000    -0.51638874 -0.81647984 -0.25826989  1.2737
    13      1   31.34424000 	2.09632000 	0.00736000      -0.51638874 -0.81647984 -0.25826989  1.2737
    14      1   31.34424000 	10.52952000 	0.00736000    -0.51638874 -0.81647984 -0.25826989  1.2737
    15      1   44.67862000 	2.09632000 	0.00736000      -0.51638874 -0.81647984 -0.25826989  1.2737
    16      1   44.67862000 	10.52952000 	0.00736000    -0.51638874 -0.81647984 -0.25826989  1.2737
    17      1   64.67980000 	2.09632000 	0.00736000      -0.51638874 -0.81647984 -0.25826989  1.2737
    18      1   64.67980000 	10.52952000 	0.00736000    -0.51638874 -0.81647984 -0.25826989  1.2737
    19      1   78.01418000 	2.09632000 	0.00736000      -0.51638874 -0.81647984 -0.25826989  1.2737
    20      1   78.01418000 	10.52952000 	0.00736000    -0.51638874 -0.81647984 -0.25826989  1.2737
    21      1   58.01301000 	2.09632000 	0.00736000      -0.51638874 -0.81647984 -0.25826989  1.2737
    22      1   58.01301000 	10.52952000 	0.00736000    -0.51638874 -0.81647984 -0.25826989  1.2737
    23      1   71.34660000 	2.09632000 	0.00736000      -0.51638874 -0.81647984 -0.25826989  1.2737
    24      1   71.34660000 	10.52952000 	0.00736000    -0.51638874 -0.81647984 -0.25826989  1.2737
    25      1   11.34307000 	2.09632000 	0.00736000      -0.51638874 -0.81647984 -0.25826989  1.2737
    26      1   11.34307000 	10.52952000 	0.00736000    -0.51638874 -0.81647984 -0.25826989  1.2737
    27      1   24.67745000 	2.09632000 	0.00736000      -0.51638874 -0.81647984 -0.25826989  1.2737
    28      1   24.67745000 	10.52952000 	0.00736000    -0.51638874 -0.81647984 -0.25826989  1.2737
    29      1   4.67627000 	2.09632000 	0.00736000        -0.51638874 -0.81647984 -0.25826989  1.2737
    30      1   4.67627000 	10.52952000 	0.00736000      -0.51638874 -0.81647984 -0.25826989  1.2737
    31      1   18.01066000 	2.09632000 	0.00736000      -0.51638874 -0.81647984 -0.25826989  1.2737
    32      1   18.01066000 	10.52952000 	0.00736000    -0.51638874 -0.81647984 -0.25826989  1.2737
    33      1   38.01183000 	2.09632000 	0.00736000      -0.51638874 -0.81647984 -0.25826989  1.2737
    34      1   38.01183000 	10.52952000 	0.00736000    -0.51638874 -0.81647984 -0.25826989  1.2737
    35      1   51.34542000 	2.09632000 	0.00736000      -0.51638874 -0.81647984 -0.25826989  1.2737
    36      1   51.34542000 	10.52952000 	0.00736000    -0.51638874 -0.81647984 -0.25826989  1.2737
    37      1   31.34424000 	2.09632000 	0.00736000      -0.51638874 -0.81647984 -0.25826989  1.2737
    38      1   31.34424000 	10.52952000 	0.00736000    -0.51638874 -0.81647984 -0.25826989  1.2737
    39      1   44.67862000 	2.09632000 	0.00736000      -0.51638874 -0.81647984 -0.25826989  1.2737
    40      1   44.67862000 	10.52952000 	0.00736000    -0.51638874 -0.81647984 -0.25826989  1.2737
    41      1   64.67980000 	2.09632000 	0.00736000      -0.51638874 -0.81647984 -0.25826989  1.2737
    42      1   64.67980000 	10.52952000 	0.00736000    -0.51638874 -0.81647984 -0.25826989  1.2737
    43      1   78.01418000 	2.09632000 	0.00736000      -0.51638874 -0.81647984 -0.25826989  1.2737
    44      1   78.01418000 	10.52952000 	0.00736000    -0.51638874 -0.81647984 -0.25826989  1.2737
    45      1   58.01301000 	2.09632000 	0.00736000      -0.51638874 -0.81647984 -0.25826989  1.2737
    46      1   58.01301000 	10.52952000 	0.00736000    -0.51638874 -0.81647984 -0.25826989  1.2737
    47      1   71.34660000 	2.09632000 	0.00736000      -0.51638874 -0.81647984 -0.25826989  1.2737
    48      1   71.34660000 	10.52952000 	0.00736000    -0.51638874 -0.81647984 -0.25826989  1.2737
    49      1   9.34295000 	8.42122000 	0.67383000        -0.51638874 -0.81647984 -0.25826989  1.2737
    50      1   9.34295000 	16.85442000 	0.67383000      -0.51638874 -0.81647984 -0.25826989  1.2737
    51      1   22.67733000 	8.42122000 	0.67383000      -0.51638874 -0.81647984 -0.25826989  1.2737
    52      1   22.67733000 	16.85442000 	0.67383000    -0.51638874 -0.81647984 -0.25826989  1.2737
    53      1   16.01054000 	8.42122000 	0.67383000      -0.51638874 -0.81647984 -0.25826989  1.2737
    54      1   16.01054000 	16.85442000 	0.67383000    -0.51638874 -0.81647984 -0.25826989  1.2737
    55      1   2.67616000 	8.42122000 	0.67383000        -0.51638874 -0.81647984 -0.25826989  1.2737
    56      1   2.67616000 	16.85442000 	0.67383000      -0.51638874 -0.81647984 -0.25826989  1.2737
    57      1   36.01172000 	8.42122000 	0.67383000      -0.51638874 -0.81647984 -0.25826989  1.2737
    58      1   36.01172000 	16.85442000 	0.67383000    -0.51638874 -0.81647984 -0.25826989  1.2737
    59      1   49.34530000 	8.42122000 	0.67383000      -0.51638874 -0.81647984 -0.25826989  1.2737
    60      1   49.34530000 	16.85442000 	0.67383000    -0.51638874 -0.81647984 -0.25826989  1.2737
    61      1   42.67851000 	8.42122000 	0.67383000      -0.51638874 -0.81647984 -0.25826989  1.2737
    62      1   42.67851000 	16.85442000 	0.67383000    -0.51638874 -0.81647984 -0.25826989  1.2737
    63      1   29.34412000 	8.42122000 	0.67383000      -0.51638874 -0.81647984 -0.25826989  1.2737
    64      1   29.34412000 	16.85442000 	0.67383000    -0.51638874 -0.81647984 -0.25826989  1.2737
    65      1   62.67968000 	8.42122000 	0.67383000      -0.51638874 -0.81647984 -0.25826989  1.2737
    66      1   62.67968000 	16.85442000 	0.67383000    -0.51638874 -0.81647984 -0.25826989  1.2737
    67      1   76.01406000 	8.42122000 	0.67383000      -0.51638874 -0.81647984 -0.25826989  1.2737
    68      1   76.01406000 	16.85442000 	0.67383000    -0.51638874 -0.81647984 -0.25826989  1.2737
    69      1   69.34647000 	8.42122000 	0.67383000      -0.51638874 -0.81647984 -0.25826989  1.2737
    70      1   69.34647000 	16.85442000 	0.67383000    -0.51638874 -0.81647984 -0.25826989  1.2737
    71      1   56.01289000 	8.42122000 	0.67383000      -0.51638874 -0.81647984 -0.25826989  1.2737
    72      1   56.01289000 	16.85442000 	0.67383000    -0.51638874 -0.81647984 -0.25826989  1.2737
    73      1   14.01042000 	6.31292000 	1.34030000      -0.51638874 -0.81647984 -0.25826989  1.2737
    74      1   14.01042000 	14.74612000 	1.34030000    -0.51638874 -0.81647984 -0.25826989  1.2737
    75      1   0.67604000 	6.31292000 	1.34030000        -0.51638874 -0.81647984 -0.25826989  1.2737
    76      1   0.67604000 	14.74612000 	1.34030000      -0.51638874 -0.81647984 -0.25826989  1.2737
    77      1   7.34283000 	6.31292000 	1.34030000        -0.51638874 -0.81647984 -0.25826989  1.2737
    78      1   7.34283000 	14.74612000 	1.34030000      -0.51638874 -0.81647984 -0.25826989  1.2737
    79      1   20.67721000 	6.31292000 	1.34030000      -0.51638874 -0.81647984 -0.25826989  1.2737
    80      1   20.67721000 	14.74612000 	1.34030000    -0.51638874 -0.81647984 -0.25826989  1.2737
    81      1   40.67839000 	6.31292000 	1.34030000      -0.51638874 -0.81647984 -0.25826989  1.2737
    82      1   40.67839000 	14.74612000 	1.34030000    -0.51638874 -0.81647984 -0.25826989  1.2737
    83      1   27.34401000 	6.31292000 	1.34030000      -0.51638874 -0.81647984 -0.25826989  1.2737
    84      1   27.34401000 	14.74612000 	1.34030000    -0.51638874 -0.81647984 -0.25826989  1.2737
    85      1   34.01160000 	6.31292000 	1.34030000      -0.51638874 -0.81647984 -0.25826989  1.2737
    86      1   34.01160000 	14.74612000 	1.34030000    -0.51638874 -0.81647984 -0.25826989  1.2737
    87      1   47.34518000 	6.31292000 	1.34030000      -0.51638874 -0.81647984 -0.25826989  1.2737
    88      1   47.34518000 	14.74612000 	1.34030000    -0.51638874 -0.81647984 -0.25826989  1.2737
    89      1   67.34636000 	6.31292000 	1.34030000      -0.51638874 -0.81647984 -0.25826989  1.2737
    90      1   67.34636000 	14.74612000 	1.34030000    -0.51638874 -0.81647984 -0.25826989  1.2737
    91      1   54.01277000 	6.31292000 	1.34030000      -0.51638874 -0.81647984 -0.25826989  1.2737
    92      1   54.01277000 	14.74612000 	1.34030000    -0.51638874 -0.81647984 -0.25826989  1.2737
    93      1   60.67956000 	6.31292000 	1.34030000      -0.51638874 -0.81647984 -0.25826989  1.2737
    94      1   60.67956000 	14.74612000 	1.34030000    -0.51638874 -0.81647984 -0.25826989  1.2737
    95      1   74.01395000 	6.31292000 	1.34030000      -0.51638874 -0.81647984 -0.25826989  1.2737
    96      1   74.01395000 	14.74612000 	1.34030000    -0.51638874 -0.81647984 -0.25826989  1.2737
    97      1   12.01031000 	4.20462000 	2.00716000      -0.51638874 -0.81647984 -0.25826989  1.2737
    98      1   12.01031000 	12.63782000 	2.00716000    -0.51638874 -0.81647984 -0.25826989  1.2737
    99      1   25.34389000 	4.20462000 	2.00716000      -0.51638874 -0.81647984 -0.25826989  1.2737
   100      1   25.34389000 	12.63782000 	2.00716000    -0.51638874 -0.81647984 -0.25826989  1.2737
   101      1   18.67710000 	4.20462000 	2.00716000      -0.51638874 -0.81647984 -0.25826989  1.2737
   102      1   18.67710000 	12.63782000 	2.00716000    -0.51638874 -0.81647984 -0.25826989  1.2737
   103      1   5.34271000 	4.20462000 	2.00716000        -0.51638874 -0.81647984 -0.25826989  1.2737
   104      1   5.34271000 	12.63782000 	2.00716000      -0.51638874 -0.81647984 -0.25826989  1.2737
   105      1   38.67827000 	4.20462000 	2.00716000      -0.51638874 -0.81647984 -0.25826989  1.2737
   106      1   38.67827000 	12.63782000 	2.00716000    -0.51638874 -0.81647984 -0.25826989  1.2737
   107      1   52.01266000 	4.20462000 	2.00716000      -0.51638874 -0.81647984 -0.25826989  1.2737
   108      1   52.01266000 	12.63782000 	2.00716000    -0.51638874 -0.81647984 -0.25826989  1.2737
   109      1   45.34506000 	4.20462000 	2.00716000      -0.51638874 -0.81647984 -0.25826989  1.2737
   110      1   45.34506000 	12.63782000 	2.00716000    -0.51638874 -0.81647984 -0.25826989  1.2737
   111      1   32.01148000 	4.20462000 	2.00716000      -0.51638874 -0.81647984 -0.25826989  1.2737
   112      1   32.01148000 	12.63782000 	2.00716000    -0.51638874 -0.81647984 -0.25826989  1.2737
   113      1   65.34624000 	4.20462000 	2.00716000      -0.51638874 -0.81647984 -0.25826989  1.2737
   114      1   65.34624000 	12.63782000 	2.00716000    -0.51638874 -0.81647984 -0.25826989  1.2737
   115      1   78.68062000 	4.20462000 	2.00716000      -0.51638874 -0.81647984 -0.25826989  1.2737
   116      1   78.68062000 	12.63782000 	2.00716000    -0.51638874 -0.81647984 -0.25826989  1.2737
   117      1   72.01383000 	4.20462000 	2.00716000      -0.51638874 -0.81647984 -0.25826989  1.2737
   118      1   72.01383000 	12.63782000 	2.00716000    -0.51638874 -0.81647984 -0.25826989  1.2737
   119      1   58.67945000 	4.20462000 	2.00716000      -0.51638874 -0.81647984 -0.25826989  1.2737
   120      1   58.67945000 	12.63782000 	2.00716000    -0.51638874 -0.81647984 -0.25826989  1.2737
   121      1   10.01019000 	2.09632000 	2.67402000      -0.51638874 -0.81647984 -0.25826989  1.2737
   122      1   10.01019000 	10.52952000 	2.67402000    -0.51638874 -0.81647984 -0.25826989  1.2737
   123      1   23.34377000 	2.09632000 	2.67402000      -0.51638874 -0.81647984 -0.25826989  1.2737
   124      1   23.34377000 	10.52952000 	2.67402000    -0.51638874 -0.81647984 -0.25826989  1.2737
   125      1   16.67698000 	2.09632000 	2.67402000      -0.51638874 -0.81647984 -0.25826989  1.2737
   126      1   16.67698000 	10.52952000 	2.67402000    -0.51638874 -0.81647984 -0.25826989  1.2737
   127      1   3.34260000 	2.09632000 	2.67402000        -0.51638874 -0.81647984 -0.25826989  1.2737
   128      1   3.34260000 	10.52952000 	2.67402000      -0.51638874 -0.81647984 -0.25826989  1.2737
   129      1   36.67815000 	2.09632000 	2.67402000      -0.51638874 -0.81647984 -0.25826989  1.2737
   130      1   36.67815000 	10.52952000 	2.67402000    -0.51638874 -0.81647984 -0.25826989  1.2737
   131      1   50.01254000 	2.09632000 	2.67402000      -0.51638874 -0.81647984 -0.25826989  1.2737
   132      1   50.01254000 	10.52952000 	2.67402000    -0.51638874 -0.81647984 -0.25826989  1.2737
   133      1   43.34495000 	2.09632000 	2.67402000      -0.51638874 -0.81647984 -0.25826989  1.2737
   134      1   43.34495000 	10.52952000 	2.67402000    -0.51638874 -0.81647984 -0.25826989  1.2737
   135      1   30.01136000 	2.09632000 	2.67402000      -0.51638874 -0.81647984 -0.25826989  1.2737
   136      1   30.01136000 	10.52952000 	2.67402000    -0.51638874 -0.81647984 -0.25826989  1.2737
   137      1   63.34612000 	2.09632000 	2.67402000      -0.51638874 -0.81647984 -0.25826989  1.2737
   138      1   63.34612000 	10.52952000 	2.67402000    -0.51638874 -0.81647984 -0.25826989  1.2737
   139      1   76.68051000 	2.09632000 	2.67402000      -0.51638874 -0.81647984 -0.25826989  1.2737
   140      1   76.68051000 	10.52952000 	2.67402000    -0.51638874 -0.81647984 -0.25826989  1.2737
   141      1   70.01371000 	2.09632000 	2.67402000      -0.51638874 -0.81647984 -0.25826989  1.2737
   142      1   70.01371000 	10.52952000 	2.67402000    -0.51638874 -0.81647984 -0.25826989  1.2737
   143      1   56.67933000 	2.09632000 	2.67402000      -0.51638874 -0.81647984 -0.25826989  1.2737
   144      1   56.67933000 	10.52952000 	2.67402000    -0.51638874 -0.81647984 -0.25826989  1.2737
   145      1   21.34365000 	8.42122000 	3.34049000      -0.51638874 -0.81647984 -0.25826989  1.2737
   146      1   21.34365000 	16.85442000 	3.34049000    -0.51638874 -0.81647984 -0.25826989  1.2737
   147      1   8.01007000 	8.42122000 	3.34049000        -0.51638874 -0.81647984 -0.25826989  1.2737
   148      1   8.01007000 	16.85442000 	3.34049000      -0.51638874 -0.81647984 -0.25826989  1.2737
   149      1   14.67686000 	8.42122000 	3.34049000      -0.51638874 -0.81647984 -0.25826989  1.2737
   150      1   14.67686000 	16.85442000 	3.34049000    -0.51638874 -0.81647984 -0.25826989  1.2737
   151      1   1.34248000 	8.42122000 	3.34049000        -0.51638874 -0.81647984 -0.25826989  1.2737
   152      1   1.34248000 	16.85442000 	3.34049000      -0.51638874 -0.81647984 -0.25826989  1.2737
   153      1   48.01242000 	8.42122000 	3.34049000      -0.51638874 -0.81647984 -0.25826989  1.2737
   154      1   48.01242000 	16.85442000 	3.34049000    -0.51638874 -0.81647984 -0.25826989  1.2737
   155      1   34.67804000 	8.42122000 	3.34049000      -0.51638874 -0.81647984 -0.25826989  1.2737
   156      1   34.67804000 	16.85442000 	3.34049000    -0.51638874 -0.81647984 -0.25826989  1.2737
   157      1   41.34483000 	8.42122000 	3.34049000      -0.51638874 -0.81647984 -0.25826989  1.2737
   158      1   41.34483000 	16.85442000 	3.34049000    -0.51638874 -0.81647984 -0.25826989  1.2737
   159      1   28.01125000 	8.42122000 	3.34049000      -0.51638874 -0.81647984 -0.25826989  1.2737
   160      1   28.01125000 	16.85442000 	3.34049000    -0.51638874 -0.81647984 -0.25826989  1.2737
   161      1   74.68039000 	8.42122000 	3.34049000      -0.51638874 -0.81647984 -0.25826989  1.2737
   162      1   74.68039000 	16.85442000 	3.34049000    -0.51638874 -0.81647984 -0.25826989  1.2737
   163      1   61.34601000 	8.42122000 	3.34049000      -0.51638874 -0.81647984 -0.25826989  1.2737
   164      1   61.34601000 	16.85442000 	3.34049000    -0.51638874 -0.81647984 -0.25826989  1.2737
   165      1   68.01360000 	8.42122000 	3.34049000      -0.51638874 -0.81647984 -0.25826989  1.2737
   166      1   68.01360000 	16.85442000 	3.34049000    -0.51638874 -0.81647984 -0.25826989  1.2737
   167      1   54.67921000 	8.42122000 	3.34049000      -0.51638874 -0.81647984 -0.25826989  1.2737
   168      1   54.67921000 	16.85442000 	3.34049000    -0.51638874 -0.81647984 -0.25826989  1.2737
   169      1   12.67675000 	6.31292000 	4.00735000      -0.51638874 -0.81647984 -0.25826989  1.2737
   170      1   12.67675000 	14.74612000 	4.00735000    -0.51638874 -0.81647984 -0.25826989  1.2737
   171      1   26.01113000 	6.31292000 	4.00735000      -0.51638874 -0.81647984 -0.25826989  1.2737
   172      1   26.01113000 	14.74612000 	4.00735000    -0.51638874 -0.81647984 -0.25826989  1.2737
   173      1   19.34354000 	6.31292000 	4.00735000      -0.51638874 -0.81647984 -0.25826989  1.2737
   174      1   19.34354000 	14.74612000 	4.00735000    -0.51638874 -0.81647984 -0.25826989  1.2737
   175      1   6.00995000 	6.31292000 	4.00735000        -0.51638874 -0.81647984 -0.25826989  1.2737
   176      1   6.00995000 	14.74612000 	4.00735000      -0.51638874 -0.81647984 -0.25826989  1.2737
   177      1   39.34471000 	6.31292000 	4.00735000      -0.51638874 -0.81647984 -0.25826989  1.2737
   178      1   39.34471000 	14.74612000 	4.00735000    -0.51638874 -0.81647984 -0.25826989  1.2737
   179      1   52.67910000 	6.31292000 	4.00735000      -0.51638874 -0.81647984 -0.25826989  1.2737
   180      1   52.67910000 	14.74612000 	4.00735000    -0.51638874 -0.81647984 -0.25826989  1.2737
   181      1   46.01230000 	6.31292000 	4.00735000      -0.51638874 -0.81647984 -0.25826989  1.2737
   182      1   46.01230000 	14.74612000 	4.00735000    -0.51638874 -0.81647984 -0.25826989  1.2737
   183      1   32.67792000 	6.31292000 	4.00735000      -0.51638874 -0.81647984 -0.25826989  1.2737
   184      1   32.67792000 	14.74612000 	4.00735000    -0.51638874 -0.81647984 -0.25826989  1.2737
   185      1   66.01348000 	6.31292000 	4.00735000      -0.51638874 -0.81647984 -0.25826989  1.2737
   186      1   66.01348000 	14.74612000 	4.00735000    -0.51638874 -0.81647984 -0.25826989  1.2737
   187      1   79.34706000 	6.31292000 	4.00735000      -0.51638874 -0.81647984 -0.25826989  1.2737
   188      1   79.34706000 	14.74612000 	4.00735000    -0.51638874 -0.81647984 -0.25826989  1.2737
   189      1   72.68027000 	6.31292000 	4.00735000      -0.51638874 -0.81647984 -0.25826989  1.2737
   190      1   72.68027000 	14.74612000 	4.00735000    -0.51638874 -0.81647984 -0.25826989  1.2737
   191      1   59.34588000 	6.31292000 	4.00735000      -0.51638874 -0.81647984 -0.25826989  1.2737
   192      1   59.34588000 	14.74612000 	4.00735000    -0.51638874 -0.81647984 -0.25826989  1.2737
   193      1   24.01101000 	4.20462000 	4.67421000      -0.51638874 -0.81647984 -0.25826989  1.2737
   194      1   24.01101000 	12.63782000 	4.67421000    -0.51638874 -0.81647984 -0.25826989  1.2737
   195      1   10.67663000 	4.20462000 	4.67421000      -0.51638874 -0.81647984 -0.25826989  1.2737
   196      1   10.67663000 	12.63782000 	4.67421000    -0.51638874 -0.81647984 -0.25826989  1.2737
   197      1   17.34342000 	4.20462000 	4.67421000      -0.51638874 -0.81647984 -0.25826989  1.2737
   198      1   17.34342000 	12.63782000 	4.67421000    -0.51638874 -0.81647984 -0.25826989  1.2737
   199      1   4.00984000 	4.20462000 	4.67421000        -0.51638874 -0.81647984 -0.25826989  1.2737
   200      1   4.00984000 	12.63782000 	4.67421000      -0.51638874 -0.81647984 -0.25826989  1.2737
   201      1   50.67897000 	4.20462000 	4.67421000      -0.51638874 -0.81647984 -0.25826989  1.2737
   202      1   50.67897000 	12.63782000 	4.67421000    -0.51638874 -0.81647984 -0.25826989  1.2737
   203      1   37.34459000 	4.20462000 	4.67421000      -0.51638874 -0.81647984 -0.25826989  1.2737
   204      1   37.34459000 	12.63782000 	4.67421000    -0.51638874 -0.81647984 -0.25826989  1.2737
   205      1   44.01219000 	4.20462000 	4.67421000      -0.51638874 -0.81647984 -0.25826989  1.2737
   206      1   44.01219000 	12.63782000 	4.67421000    -0.51638874 -0.81647984 -0.25826989  1.2737
   207      1   30.67780000 	4.20462000 	4.67421000      -0.51638874 -0.81647984 -0.25826989  1.2737
   208      1   30.67780000 	12.63782000 	4.67421000    -0.51638874 -0.81647984 -0.25826989  1.2737
   209      1   77.34695000 	4.20462000 	4.67421000      -0.51638874 -0.81647984 -0.25826989  1.2737
   210      1   77.34695000 	12.63782000 	4.67421000    -0.51638874 -0.81647984 -0.25826989  1.2737
   211      1   64.01336000 	4.20462000 	4.67421000      -0.51638874 -0.81647984 -0.25826989  1.2737
   212      1   64.01336000 	12.63782000 	4.67421000    -0.51638874 -0.81647984 -0.25826989  1.2737
   213      1   70.68015000 	4.20462000 	4.67421000      -0.51638874 -0.81647984 -0.25826989  1.2737
   214      1   70.68015000 	12.63782000 	4.67421000    -0.51638874 -0.81647984 -0.25826989  1.2737
   215      1   57.34577000 	4.20462000 	4.67421000      -0.51638874 -0.81647984 -0.25826989  1.2737
   216      1   57.34577000 	12.63782000 	4.67421000    -0.51638874 -0.81647984 -0.25826989  1.2737
   217      1   22.01089000 	2.09632000 	5.34068000      -0.51638874 -0.81647984 -0.25826989  1.2737
   218      1   22.01089000 	10.52952000 	5.34068000    -0.51638874 -0.81647984 -0.25826989  1.2737
   219      1   8.67651000 	2.09632000 	5.34068000        -0.51638874 -0.81647984 -0.25826989  1.2737
   220      1   8.67651000 	10.52952000 	5.34068000      -0.51638874 -0.81647984 -0.25826989  1.2737
   221      1   15.34330000 	2.09632000 	5.34068000      -0.51638874 -0.81647984 -0.25826989  1.2737
   222      1   15.34330000 	10.52952000 	5.34068000    -0.51638874 -0.81647984 -0.25826989  1.2737
   223      1   2.00972000 	2.09632000 	5.34068000        -0.51638874 -0.81647984 -0.25826989  1.2737
   224      1   2.00972000 	10.52952000 	5.34068000      -0.51638874 -0.81647984 -0.25826989  1.2737
   225      1   48.67886000 	2.09632000 	5.34068000      -0.51638874 -0.81647984 -0.25826989  1.2737
   226      1   48.67886000 	10.52952000 	5.34068000    -0.51638874 -0.81647984 -0.25826989  1.2737
   227      1   35.34447000 	2.09632000 	5.34068000      -0.51638874 -0.81647984 -0.25826989  1.2737
   228      1   35.34447000 	10.52952000 	5.34068000    -0.51638874 -0.81647984 -0.25826989  1.2737
   229      1   42.01207000 	2.09632000 	5.34068000      -0.51638874 -0.81647984 -0.25826989  1.2737
   230      1   42.01207000 	10.52952000 	5.34068000    -0.51638874 -0.81647984 -0.25826989  1.2737
   231      1   28.67768000 	2.09632000 	5.34068000      -0.51638874 -0.81647984 -0.25826989  1.2737
   232      1   28.67768000 	10.52952000 	5.34068000    -0.51638874 -0.81647984 -0.25826989  1.2737
   233      1   75.34682000 	2.09632000 	5.34068000      -0.51638874 -0.81647984 -0.25826989  1.2737
   234      1   75.34682000 	10.52952000 	5.34068000    -0.51638874 -0.81647984 -0.25826989  1.2737
   235      1   62.01324000 	2.09632000 	5.34068000      -0.51638874 -0.81647984 -0.25826989  1.2737
   236      1   62.01324000 	10.52952000 	5.34068000    -0.51638874 -0.81647984 -0.25826989  1.2737
   237      1   68.68003000 	2.09632000 	5.34068000      -0.51638874 -0.81647984 -0.25826989  1.2737
   238      1   68.68003000 	10.52952000 	5.34068000    -0.51638874 -0.81647984 -0.25826989  1.2737
   239      1   55.34565000 	2.09632000 	5.34068000      -0.51638874 -0.81647984 -0.25826989  1.2737
   240      1   55.34565000 	10.52952000 	5.34068000    -0.51638874 -0.81647984 -0.25826989  1.2737
   241      1   20.01078000 	8.42122000 	6.00754000      -0.51638874 -0.81647984 -0.25826989  1.2737
   242      1   20.01078000 	16.85442000 	6.00754000    -0.51638874 -0.81647984 -0.25826989  1.2737
   243      1   6.67639000 	8.42122000 	6.00754000        -0.51638874 -0.81647984 -0.25826989  1.2737
   244      1   6.67639000 	16.85442000 	6.00754000      -0.51638874 -0.81647984 -0.25826989  1.2737
   245      1   0.00960000 	8.42122000 	6.00754000        -0.51638874 -0.81647984 -0.25826989  1.2737
   246      1   0.00960000 	16.85442000 	6.00754000      -0.51638874 -0.81647984 -0.25826989  1.2737
   247      1   13.34318000 	8.42122000 	6.00754000      -0.51638874 -0.81647984 -0.25826989  1.2737
   248      1   13.34318000 	16.85442000 	6.00754000    -0.51638874 -0.81647984 -0.25826989  1.2737
   249      1   46.67874000 	8.42122000 	6.00754000      -0.51638874 -0.81647984 -0.25826989  1.2737
   250      1   46.67874000 	16.85442000 	6.00754000    -0.51638874 -0.81647984 -0.25826989  1.2737
   251      1   33.34436000 	8.42122000 	6.00754000      -0.51638874 -0.81647984 -0.25826989  1.2737
   252      1   33.34436000 	16.85442000 	6.00754000    -0.51638874 -0.81647984 -0.25826989  1.2737
   253      1   26.67757000 	8.42122000 	6.00754000      -0.51638874 -0.81647984 -0.25826989  1.2737
   254      1   26.67757000 	16.85442000 	6.00754000    -0.51638874 -0.81647984 -0.25826989  1.2737
   255      1   40.01195000 	8.42122000 	6.00754000      -0.51638874 -0.81647984 -0.25826989  1.2737
   256      1   40.01195000 	16.85442000 	6.00754000    -0.51638874 -0.81647984 -0.25826989  1.2737
   257      1   73.34671000 	8.42122000 	6.00754000      -0.51638874 -0.81647984 -0.25826989  1.2737
   258      1   73.34671000 	16.85442000 	6.00754000    -0.51638874 -0.81647984 -0.25826989  1.2737
   259      1   60.01312000 	8.42122000 	6.00754000      -0.51638874 -0.81647984 -0.25826989  1.2737
   260      1   60.01312000 	16.85442000 	6.00754000    -0.51638874 -0.81647984 -0.25826989  1.2737
   261      1   53.34553000 	8.42122000 	6.00754000      -0.51638874 -0.81647984 -0.25826989  1.2737
   262      1   53.34553000 	16.85442000 	6.00754000    -0.51638874 -0.81647984 -0.25826989  1.2737
   263      1   66.67992000 	8.42122000 	6.00754000      -0.51638874 -0.81647984 -0.25826989  1.2737
   264      1   66.67992000 	16.85442000 	6.00754000    -0.51638874 -0.81647984 -0.25826989  1.2737
   265      1   24.67745000 	6.31292000 	6.67401000      -0.51638874 -0.81647984 -0.25826989  1.2737
   266      1   24.67745000 	14.74612000 	6.67401000    -0.51638874 -0.81647984 -0.25826989  1.2737
   267      1   11.34307000 	6.31292000 	6.67401000      -0.51638874 -0.81647984 -0.25826989  1.2737
   268      1   11.34307000 	14.74612000 	6.67401000    -0.51638874 -0.81647984 -0.25826989  1.2737
   269      1   18.01066000 	6.31292000 	6.67401000      -0.51638874 -0.81647984 -0.25826989  1.2737
   270      1   18.01066000 	14.74612000 	6.67401000    -0.51638874 -0.81647984 -0.25826989  1.2737
   271      1   4.67627000 	6.31292000 	6.67401000        -0.51638874 -0.81647984 -0.25826989  1.2737
   272      1   4.67627000 	14.74612000 	6.67401000      -0.51638874 -0.81647984 -0.25826989  1.2737
   273      1   51.34542000 	6.31292000 	6.67401000      -0.51638874 -0.81647984 -0.25826989  1.2737
   274      1   51.34542000 	14.74612000 	6.67401000    -0.51638874 -0.81647984 -0.25826989  1.2737
   275      1   38.01183000 	6.31292000 	6.67401000      -0.51638874 -0.81647984 -0.25826989  1.2737
   276      1   38.01183000 	14.74612000 	6.67401000    -0.51638874 -0.81647984 -0.25826989  1.2737
   277      1   44.67862000 	6.31292000 	6.67401000      -0.51638874 -0.81647984 -0.25826989  1.2737
   278      1   44.67862000 	14.74612000 	6.67401000    -0.51638874 -0.81647984 -0.25826989  1.2737
   279      1   31.34424000 	6.31292000 	6.67401000      -0.51638874 -0.81647984 -0.25826989  1.2737
   280      1   31.34424000 	14.74612000 	6.67401000    -0.51638874 -0.81647984 -0.25826989  1.2737
   281      1   78.01418000 	6.31292000 	6.67401000      -0.51638874 -0.81647984 -0.25826989  1.2737
   282      1   78.01418000 	14.74612000 	6.67401000    -0.51638874 -0.81647984 -0.25826989  1.2737
   283      1   64.67980000 	6.31292000 	6.67401000      -0.51638874 -0.81647984 -0.25826989  1.2737
   284      1   64.67980000 	14.74612000 	6.67401000    -0.51638874 -0.81647984 -0.25826989  1.2737
   285      1   71.34660000 	6.31292000 	6.67401000      -0.51638874 -0.81647984 -0.25826989  1.2737
   286      1   71.34660000 	14.74612000 	6.67401000    -0.51638874 -0.81647984 -0.25826989  1.2737
   287      1   58.01301000 	6.31292000 	6.67401000      -0.51638874 -0.81647984 -0.25826989  1.2737
   288      1   58.01301000 	14.74612000 	6.67401000    -0.51638874 -0.81647984 -0.25826989  1.2737
   289      1   22.67733000 	4.20462000 	7.34087000      -0.51638874 -0.81647984 -0.25826989  1.2737
   290      1   22.67733000 	12.63782000 	7.34087000    -0.51638874 -0.81647984 -0.25826989  1.2737
   291      1   9.34295000 	4.20462000 	7.34087000        -0.51638874 -0.81647984 -0.25826989  1.2737
   292      1   9.34295000 	12.63782000 	7.34087000      -0.51638874 -0.81647984 -0.25826989  1.2737
   293      1   2.67616000 	4.20462000 	7.34087000        -0.51638874 -0.81647984 -0.25826989  1.2737
   294      1   2.67616000 	12.63782000 	7.34087000      -0.51638874 -0.81647984 -0.25826989  1.2737
   295      1   16.01054000 	4.20462000 	7.34087000      -0.51638874 -0.81647984 -0.25826989  1.2737