1.289100000000000055e-03 5.943399999999999508e-04 1.490650000000000048e-03 4.267601570000000066e+00 1.286912140000000093e+00 2.525044190000000022e+00 4.265093519999999749e+00 2.834884310000000074e+00 9.148210000000000369e-03 8.528821680000000072e+00 4.116399499999999989e+00 2.526786749999999859e+00 5.120741719999999830e+00 1.222700000000000067e-04 5.306139999999999989e-03 9.390781810000000007e+00 1.286598150000000107e+00 2.523374710000000132e+00 9.391833090000000439e+00 2.830475670000000221e+00 1.857120000000000081e-03 1.365873885999999970e+01 4.119536669999999567e+00 2.526606160000000045e+00 6.828784549999999953e+00 2.059846970000000166e+00 1.262669419999999931e+00 1.109822677000000013e+01 3.346205700000000061e+00 3.795409849999999974e+00 1.109361447999999939e+01 4.897490620000000128e+00 1.266285260000000079e+00 1.536795767999999995e+01 6.183372199999999985e+00 3.792733409999999861e+00 1.195199795000000087e+01 2.059721409999999864e+00 1.262476319999999985e+00 1.621999634000000157e+01 3.347328119999999796e+00 3.788459089999999918e+00 1.622207363000000058e+01 4.896582099999999826e+00 1.258083899999999922e+00 2.048767381000000043e+01 6.180847120000000139e+00 3.790341259999999934e+00 3.415477709999999778e+00 1.029236030000000079e+00 6.317049300000000533e-01 7.682071979999999911e+00 2.317139350000000153e+00 3.153280810000000045e+00 7.682256380000000107e+00 3.864724170000000125e+00 6.310030300000000203e-01 1.194996216000000011e+01 5.151197220000000243e+00 3.156166840000000029e+00 8.536951260000000374e+00 1.030042609999999970e+00 6.342946799999999996e-01 1.280225893000000070e+01 2.320693390000000189e+00 3.154568429999999868e+00 1.280432358999999920e+01 3.863336739999999825e+00 6.276450599999999769e-01 1.707274289000000067e+01 5.153711440000000366e+00 3.151379149999999907e+00 1.024256446000000054e+01 3.090351450000000000e+00 1.893656250000000041e+00 1.450422088999999914e+01 4.379459370000000185e+00 4.419728469999999909e+00 1.451072886999999945e+01 5.926744239999999664e+00 1.892596560000000094e+00 1.877916583000000017e+01 7.211631510000000134e+00 4.415015160000000272e+00 1.536725795000000083e+01 3.090729560000000209e+00 1.892780080000000087e+00 1.963172451999999879e+01 4.377700410000000097e+00 4.424700579999999661e+00 1.963429616999999894e+01 5.924486210000000419e+00 1.891055219999999926e+00 2.390606839000000150e+01 7.210291899999999643e+00 4.427337950000000077e+00 2.032898700000000114e-01 1.637153299999999922e-01 -3.027908500000000003e-01 4.476174649999999922e+00 1.467238049999999960e+00 2.235251439999999867e+00 4.438127050000000295e+00 3.059042409999999990e+00 -2.733629300000000040e-01 8.735904079999999183e+00 4.264574600000000437e+00 2.218304949999999831e+00 5.331838669999999780e+00 1.887327099999999980e-01 -2.772963700000000142e-01 9.566924090000000547e+00 1.494791779999999903e+00 2.230749850000000034e+00 9.546694399999999803e+00 3.026958800000000060e+00 -3.102523999999999837e-01 1.385259132000000015e+01 4.266504219999999847e+00 2.209081729999999855e+00 6.641206279999999573e+00 1.905894800000000000e+00 1.580652320000000000e+00 1.092954809000000083e+01 3.230208010000000129e+00 4.139055070000000391e+00 1.088678887999999922e+01 4.702575429999999557e+00 1.547765700000000022e+00 1.520446302999999943e+01 6.060605869999999840e+00 4.136532660000000305e+00 1.179556410000000000e+01 1.937260259999999956e+00 1.609653100000000059e+00 1.603264894000000140e+01 3.197986900000000077e+00 4.108768559999999681e+00 1.611275469999999999e+01 4.728946299999999603e+00 1.604418429999999951e+00 2.034156563000000162e+01 5.985539560000000314e+00 4.107370219999999961e+00
1.489110000000000086e-03 9.680700000000000199e-04 3.212060000000000089e-03 4.263872680000000415e+00 1.287302949999999946e+00 2.531889290000000070e+00 4.267739559999999877e+00 2.834000570000000163e+00 1.675600000000000017e-04 8.534475060000000113e+00 4.117655449999999995e+00 2.524621390000000076e+00 5.119522459999999775e+00 -2.776520000000000203e-03 5.938820000000000036e-03 9.397485870000000574e+00 1.287698339999999941e+00 2.518085559999999834e+00 9.392826169999999308e+00 2.830314410000000169e+00 -5.854899999999999688e-03 1.365857154999999956e+01 4.120449459999999675e+00 2.525884500000000088e+00 6.832044439999999774e+00 2.060238000000000014e+00 1.263971760000000000e+00 1.110086122000000053e+01 3.345382760000000122e+00 3.785041389999999950e+00 1.109579577999999955e+01 4.892677720000000008e+00 1.264499730000000044e+00 1.537070506999999964e+01 6.180926870000000406e+00 3.794814849999999851e+00 1.195006813000000001e+01 2.059869609999999795e+00 1.261358940000000040e+00 1.621164080999999868e+01 3.345815729999999988e+00 3.782810050000000146e+00 1.622068636999999924e+01 4.890300700000000056e+00 1.262403390000000014e+00 2.048767429000000106e+01 6.182344960000000000e+00 3.778471129999999789e+00 3.413484350000000056e+00 1.027050309999999911e+00 6.256173800000000007e-01 7.682422550000000072e+00 2.316919969999999829e+00 3.159422109999999950e+00 7.678709139999999600e+00 3.859954189999999841e+00 6.385553499999999660e-01 1.195157056000000040e+01 5.150838099999999642e+00 3.152930659999999996e+00 8.539491469999999751e+00 1.030068849999999925e+00 6.324899899999999464e-01 1.279912260999999951e+01 2.316079660000000207e+00 3.155899620000000017e+00 1.280714739000000080e+01 3.862993110000000119e+00 6.312297999999999520e-01 1.707203485999999870e+01 5.150400209999999923e+00 3.159528159999999808e+00 1.024302984999999921e+01 3.095301510000000089e+00 1.899337070000000072e+00 1.450962606999999949e+01 4.383361419999999953e+00 4.418267990000000367e+00 1.450959456000000003e+01 5.924015400000000042e+00 1.893229140000000088e+00 1.878411820000000176e+01 7.217136749999999878e+00 4.422297920000000104e+00 1.536536446999999939e+01 3.090772760000000119e+00 1.893762170000000022e+00 1.962708552999999867e+01 4.380474180000000217e+00 4.417623220000000295e+00 1.963309109000000063e+01 5.921520189999999850e+00 1.895439529999999984e+00 2.390467866999999913e+01 7.213315350000000237e+00 4.419432709999999709e+00 9.134517999999999804e-02 1.531882400000000033e-01 -3.556122800000000028e-01 4.415015259999999664e+00 1.500652649999999921e+00 2.229171889999999934e+00 4.414514760000000315e+00 3.038639369999999840e+00 -3.106056799999999951e-01 8.661264969999999508e+00 4.232774889999999957e+00 2.163135800000000053e+00 5.203833900000000234e+00 1.285161700000000129e-01 -3.623732900000000146e-01 9.506779440000000747e+00 1.494799949999999988e+00 2.193795820000000063e+00 9.518362140000000693e+00 3.045074140000000096e+00 -3.190943900000000055e-01 1.379093098999999967e+01 4.265252819999999723e+00 2.177297400000000049e+00 6.734562939999999998e+00 1.918669060000000037e+00 1.625158129999999979e+00 1.095426312999999929e+01 3.227799849999999804e+00 4.138146560000000029e+00 1.100468417999999993e+01 4.678111499999999978e+00 1.589553589999999961e+00 1.521230472999999961e+01 6.036218769999999623e+00 4.132407650000000210e+00 1.183942000000000050e+01 1.943901609999999947e+00 1.627840060000000033e+00 1.608192838000000080e+01 3.218534200000000123e+00 4.139144299999999888e+00 1.608003444999999942e+01 4.682788330000000165e+00 1.574101399999999984e+00 2.031798724000000078e+01 5.984102130000000130e+00 4.081631299999999740e+00
4.084550000000000160e-03 -4.360570000000000244e-03 -3.491649999999999789e-03 4.268236909999999718e+00 1.289490510000000034e+00 2.518892090000000028e+00 4.266309370000000101e+00 2.834588220000000103e+00 -1.437539999999999955e-03 8.536936900000000605e+00 4.120299759999999978e+00 2.520782360000000111e+00 5.132299220000000162e+00 6.577109999999999727e-03 -1.447909999999999952e-03 9.402197599999999156e+00 1.268570600000000104e+00 2.531184459999999969e+00 9.391707560000000399e+00 2.833295989999999875e+00 -6.053400000000000013e-04 1.365832239999999942e+01 4.121124420000000121e+00 2.525981659999999795e+00 6.843285289999999854e+00 2.076470459999999907e+00 1.264923100000000078e+00 1.109297862999999928e+01 3.351954119999999815e+00 3.793246930000000017e+00 1.109651009999999971e+01 4.894079729999999628e+00 1.258562369999999930e+00 1.535578772000000036e+01 6.189092370000000010e+00 3.772105310000000156e+00 1.196183966999999981e+01 2.051501130000000117e+00 1.268057409999999940e+00 1.622024475999999993e+01 3.347313250000000018e+00 3.781890890000000116e+00 1.623926565000000011e+01 4.901504430000000134e+00 1.241086240000000007e+00 2.047595661000000078e+01 6.200869130000000062e+00 3.804836830000000170e+00 3.414250809999999969e+00 1.030971590000000049e+00 6.328063099999999830e-01 7.677986719999999821e+00 2.324446679999999876e+00 3.151302620000000054e+00 7.678205730000000173e+00 3.879491049999999941e+00 6.406378799999999929e-01 1.195356222000000024e+01 5.153778299999999923e+00 3.140811240000000115e+00 8.546553490000000863e+00 1.036852569999999973e+00 6.269224199999999803e-01 1.279550985000000018e+01 2.334186610000000162e+00 3.166630829999999897e+00 1.280611107000000004e+01 3.864240899999999979e+00 6.439908199999999638e-01 1.707670076000000137e+01 5.150298969999999699e+00 3.170771150000000205e+00 1.024505936999999989e+01 3.091756830000000011e+00 1.893908460000000016e+00 1.451113548000000009e+01 4.364842160000000248e+00 4.406708430000000121e+00 1.450561042000000000e+01 5.927103250000000045e+00 1.891511490000000073e+00 1.876972546000000008e+01 7.225111049999999757e+00 4.403989980000000415e+00 1.536243735000000044e+01 3.108977040000000081e+00 1.895514970000000021e+00 1.963107121000000177e+01 4.379516810000000149e+00 4.425893140000000336e+00 1.963473203999999939e+01 5.924765090000000178e+00 1.870683609999999941e+00 2.390036678999999964e+01 7.218521779999999666e+00 4.438425480000000256e+00 5.601292000000000076e-02 1.588346900000000006e-01 -3.649757499999999877e-01 4.449197279999999921e+00 1.352790879999999918e+00 2.167827410000000121e+00 4.501294330000000343e+00 3.060280590000000078e+00 -2.334828399999999970e-01 8.742075809999999336e+00 4.168384989999999846e+00 2.180773770000000056e+00 5.321999510000000377e+00 1.124954299999999935e-01 -3.372977400000000126e-01 9.545643419999999324e+00 1.471199630000000091e+00 2.217552870000000009e+00 9.468382580000000104e+00 3.010710829999999838e+00 -3.508123000000000213e-01 1.381719705999999981e+01 4.258028949999999924e+00 2.185370460000000126e+00 6.654589640000000195e+00 1.834099530000000033e+00 1.521146220000000104e+00 1.104004778999999914e+01 3.110474739999999905e+00 4.107708429999999744e+00 1.098765569000000042e+01 4.827322040000000314e+00 1.637632449999999906e+00 1.527638327999999923e+01 5.958996939999999576e+00 4.089518329999999757e+00 1.189939032000000019e+01 1.854618679999999964e+00 1.610602850000000030e+00 1.598034836999999975e+01 3.147374919999999854e+00 4.031839660000000158e+00 1.607860035999999937e+01 4.681150030000000406e+00 1.533713309999999996e+00 2.023085033999999993e+01 6.024599989999999572e+00 4.067233680000000184e+00
-2.327029999999999897e-03 -2.083460000000000086e-03 -9.835499999999999191e-04 4.249508210000000119e+00 1.276339499999999960e+00 2.519892340000000175e+00 4.267690329999999754e+00 2.834055409999999942e+00 1.999000000000000072e-04 8.542365379999999675e+00 4.138275359999999736e+00 2.543668339999999972e+00 5.111335509999999971e+00 -1.293884000000000006e-02 -1.502989000000000061e-02 9.390661290000000605e+00 1.286526810000000021e+00 2.524564339999999962e+00 9.390767750000000191e+00 2.834360220000000208e+00 -1.407915000000000035e-02 1.367478251000000000e+01 4.128539870000000001e+00 2.532020179999999954e+00 6.818190880000000398e+00 2.056185109999999927e+00 1.262502749999999896e+00 1.107103825000000086e+01 3.348358680000000032e+00 3.799786709999999790e+00 1.110206595999999912e+01 4.872565190000000435e+00 1.263164230000000110e+00 1.536895980000000073e+01 6.175163399999999747e+00 3.787192080000000072e+00 1.195197869000000068e+01 2.060158920000000116e+00 1.288978650000000004e+00 1.622052430000000101e+01 3.346768159999999881e+00 3.791289330000000124e+00 1.621935905999999861e+01 4.894649819999999707e+00 1.242563609999999930e+00 2.049387074999999925e+01 6.179236239999999825e+00 3.782745419999999914e+00 3.402769660000000140e+00 1.028258829999999957e+00 6.229818900000000381e-01 7.682234260000000425e+00 2.316990109999999881e+00 3.156083179999999988e+00 7.661608339999999906e+00 3.857785760000000064e+00 6.504773700000000547e-01 1.193942413000000080e+01 5.143740769999999962e+00 3.169195699999999949e+00 8.533541669999999968e+00 1.024597210000000036e+00 6.491626200000000235e-01 1.280482940999999997e+01 2.316673600000000111e+00 3.155340160000000171e+00 1.280434870000000025e+01 3.864537649999999935e+00 6.559156699999999507e-01 1.707245102999999986e+01 5.150292770000000075e+00 3.172583760000000197e+00 1.024570871000000061e+01 3.080806079999999891e+00 1.870747979999999977e+00 1.452643669999999965e+01 4.387282329999999675e+00 4.413221670000000429e+00 1.449224406000000087e+01 5.918907080000000320e+00 1.906214269999999988e+00 1.877910354000000126e+01 7.210690979999999861e+00 4.418385650000000275e+00 1.539473463000000031e+01 3.087483240000000073e+00 1.898735650000000108e+00 1.961990866000000011e+01 4.367403140000000406e+00 4.414459139999999948e+00 1.965034225000000134e+01 5.935255530000000057e+00 1.873287499999999994e+00 2.390625173999999831e+01 7.213547479999999901e+00 4.391557099999999991e+00 1.336620099999999978e-01 1.017789600000000017e-01 -3.625351800000000124e-01 4.387769660000000016e+00 1.393104590000000087e+00 2.163171600000000083e+00 4.329404959999999747e+00 3.044203120000000151e+00 -3.345078000000000218e-01 8.704282870000000116e+00 4.300582089999999802e+00 2.215889069999999794e+00 5.178335070000000151e+00 1.003314800000000007e-01 -3.927611400000000086e-01 9.429096749999999361e+00 1.487422859999999902e+00 2.180815169999999803e+00 9.441309040000000152e+00 2.993344640000000112e+00 -3.776304300000000169e-01 1.378862467000000080e+01 4.299324939999999984e+00 2.188694640000000025e+00 6.706232400000000204e+00 1.862033760000000093e+00 1.593819139999999912e+00 1.094047091999999921e+01 3.106929710000000178e+00 4.090757889999999897e+00 1.105507665000000017e+01 4.668550630000000368e+00 1.604001529999999898e+00 1.525690503000000042e+01 6.013018980000000013e+00 4.135262349999999643e+00 1.180228579000000089e+01 1.902502410000000088e+00 1.624741159999999907e+00 1.600503469999999950e+01 3.134240699999999880e+00 4.052816220000000413e+00 1.612647347000000053e+01 4.681168190000000173e+00 1.567829439999999908e+00 2.032297409999999971e+01 5.930636899999999656e+00 4.045410040000000151e+00
-2.651829999999999986e-03 7.751260000000000268e-03 -9.528629999999999739e-03 4.268755660000000063e+00 1.283462700000000067e+00 2.526068800000000003e+00 4.271813269999999996e+00 2.827747790000000094e+00 1.741859999999999936e-02 8.533359259999999225e+00 4.124571699999999730e+00 2.527459550000000110e+00 5.131575619999999560e+00 -6.775259999999999963e-03 7.526650000000000180e-03 9.378140439999999245e+00 1.264830979999999938e+00 2.535237920000000145e+00 9.387255379999999150e+00 2.838217170000000067e+00 7.554820000000000285e-03 1.366069358000000022e+01 4.122789680000000345e+00 2.524696270000000187e+00 6.815825549999999566e+00 2.077688390000000052e+00 1.273738309999999929e+00 1.109806541000000024e+01 3.357793710000000154e+00 3.805849339999999970e+00 1.107914148999999959e+01 4.890534370000000131e+00 1.284782450000000020e+00 1.536399240000000077e+01 6.177264939999999704e+00 3.795669150000000158e+00 1.196201087000000030e+01 2.065221250000000008e+00 1.258052989999999927e+00 1.623467707000000004e+01 3.343207640000000147e+00 3.790194280000000138e+00 1.620704459999999969e+01 4.899095899999999837e+00 1.259153460000000058e+00 2.049005701999999829e+01 6.181247800000000403e+00 3.762451369999999962e+00 3.415966599999999964e+00 1.031976559999999932e+00 6.256567400000000445e-01 7.696019970000000043e+00 2.315299720000000061e+00 3.155672379999999944e+00 7.693624459999999665e+00 3.862251650000000147e+00 6.055131099999999655e-01 1.193596866000000034e+01 5.168267860000000269e+00 3.166198159999999984e+00 8.531640400000000568e+00 1.020723459999999916e+00 6.483526400000000356e-01 1.279737358999999941e+01 2.315065759999999973e+00 3.170538810000000041e+00 1.281048958000000049e+01 3.857182369999999860e+00 6.494752299999999590e-01 1.707520191000000054e+01 5.152546779999999771e+00 3.178560520000000000e+00 1.024502318999999950e+01 3.087552800000000097e+00 1.922757880000000030e+00 1.450683824000000044e+01 4.356769100000000172e+00 4.401948899999999831e+00 1.451837723000000047e+01 5.915836180000000333e+00 1.870704860000000025e+00 1.878623346999999910e+01 7.204219319999999982e+00 4.424650770000000399e+00 1.537167600000000078e+01 3.091532009999999886e+00 1.891979690000000103e+00 1.962794106999999855e+01 4.376423879999999933e+00 4.432336549999999598e+00 1.963996138999999985e+01 5.919946259999999683e+00 1.921653279999999908e+00 2.390200935000000015e+01 7.210643769999999897e+00 4.403389800000000243e+00 2.011240400000000039e-01 1.972953600000000030e-01 -2.968410499999999952e-01 4.380690740000000361e+00 1.551596860000000078e+00 2.251160430000000101e+00 4.428345069999999772e+00 2.933408420000000127e+00 -3.351911399999999985e-01 8.748795319999999265e+00 4.316897059999999620e+00 2.250695649999999937e+00 5.396253250000000001e+00 7.614904999999999591e-02 -2.806908200000000075e-01 9.544532600000000144e+00 1.349196920000000022e+00 2.181407399999999885e+00 9.512811179999999922e+00 2.926945379999999819e+00 -3.617188499999999807e-01 1.375468943000000088e+01 4.390303600000000195e+00 2.242559630000000137e+00 6.675137880000000301e+00 2.017731229999999876e+00 1.643349079999999907e+00 1.089548601000000083e+01 3.163727590000000145e+00 4.090980759999999883e+00 1.100326094999999960e+01 4.806327920000000198e+00 1.668385650000000053e+00 1.517119785000000043e+01 6.019099650000000246e+00 4.108421459999999747e+00 1.186754213000000036e+01 1.799156369999999949e+00 1.541399310000000078e+00 1.615645668999999884e+01 3.248198589999999886e+00 4.170792299999999564e+00 1.613809764000000158e+01 4.797226239999999642e+00 1.639769919999999992e+00 2.035689543999999884e+01 5.949753989999999604e+00 4.060240900000000153e+00
1.935869999999999952e-02 -5.848609999999999746e-03 -1.232209000000000082e-02 4.281845610000000413e+00 1.264979180000000092e+00 2.505613489999999999e+00 4.259608339999999771e+00 2.845905740000000073e+00 7.978070000000000300e-03 8.535219989999999868e+00 4.121290310000000012e+00 2.532110550000000071e+00 5.125224649999999826e+00 1.977862000000000023e-02 -3.434241999999999850e-02 9.384358739999999699e+00 1.272437229999999975e+00 2.557893469999999780e+00 9.390506430000000293e+00 2.833340240000000065e+00 8.611560000000000742e-03 1.364665618000000080e+01 4.131087380000000309e+00 2.556603579999999987e+00 6.818439970000000017e+00 2.096002760000000187e+00 1.251304479999999941e+00 1.109750473999999976e+01 3.345385879999999812e+00 3.803754119999999794e+00 1.108971026999999943e+01 4.886323390000000266e+00 1.262920459999999911e+00 1.537225663000000075e+01 6.190741049999999746e+00 3.784218950000000081e+00 1.196354711000000037e+01 2.049239790000000117e+00 1.249954840000000011e+00 1.620336166999999961e+01 3.357436410000000038e+00 3.789571870000000064e+00 1.622372637999999867e+01 4.865243590000000395e+00 1.282336659999999906e+00 2.048783656999999891e+01 6.186927380000000198e+00 3.785056519999999924e+00 3.426241469999999900e+00 1.032011140000000049e+00 6.508751000000000397e-01 7.682186759999999559e+00 2.317255970000000165e+00 3.155714179999999924e+00 7.683977480000000249e+00 3.877488449999999975e+00 6.342786500000000549e-01 1.195500469999999993e+01 5.139730310000000024e+00 3.138395249999999859e+00 8.548830730000000599e+00 1.028115850000000053e+00 6.179689900000000513e-01 1.280979074999999945e+01 2.321916229999999803e+00 3.147795420000000011e+00 1.280549528000000059e+01 3.863454420000000056e+00 6.324536200000000497e-01 1.710253412999999867e+01 5.163168500000000272e+00 3.133023500000000183e+00 1.024928288999999992e+01 3.091495779999999804e+00 1.923137059999999954e+00 1.451177294999999923e+01 4.377785099999999652e+00 4.419828019999999746e+00 1.450801758999999969e+01 5.927034889999999834e+00 1.902830360000000054e+00 1.878026631999999907e+01 7.211489199999999933e+00 4.436051159999999882e+00 1.537188549999999942e+01 3.086109720000000056e+00 1.885658449999999986e+00 1.965477818000000099e+01 4.361685589999999557e+00 4.448794610000000205e+00 1.963042121999999878e+01 5.925668210000000435e+00 1.907642089999999957e+00 2.392247044000000145e+01 7.190982199999999658e+00 4.400597839999999650e+00 -2.538790000000000144e-02 -7.007836000000000620e-02 -4.045876600000000156e-01 4.505424719999999716e+00 1.535738880000000028e+00 2.314036960000000143e+00 4.255530480000000004e+00 2.857729099999999800e+00 -3.918263599999999847e-01 8.529187549999999618e+00 4.098129759999999955e+00 2.132827189999999984e+00 5.130018149999999721e+00 -4.520529000000000214e-02 -4.289993799999999857e-01 9.460099720000000545e+00 1.235548120000000027e+00 2.166865979999999858e+00 9.368961410000000711e+00 3.030252940000000006e+00 -3.388955599999999846e-01 1.358575109000000047e+01 4.038190779999999869e+00 2.172337020000000063e+00 6.797423720000000280e+00 2.198996540000000000e+00 1.637245660000000047e+00 1.130488683999999999e+01 3.313518689999999989e+00 4.144308299999999612e+00 1.072034878999999918e+01 4.751566580000000428e+00 1.336491499999999943e+00 1.498196040000000018e+01 6.145923960000000186e+00 3.859453799999999823e+00 1.174595534000000008e+01 1.945256029999999914e+00 1.569080519999999979e+00 1.613576730999999853e+01 3.317124360000000216e+00 4.181752880000000339e+00 1.610483507000000003e+01 4.824315989999999665e+00 1.662059970000000053e+00 2.043778043000000011e+01 5.986098349999999790e+00 4.127345990000000242e+00
4.891559999999999658e-03 3.690400000000000039e-04 -5.583190000000000028e-03 4.258788980000000279e+00 1.282385129999999984e+00 2.534082109999999943e+00 4.261592049999999965e+00 2.836208650000000109e+00 2.070380000000000137e-03 8.538627440000000846e+00 4.133012049999999604e+00 2.539492469999999891e+00 5.128575820000000007e+00 1.287460999999999987e-02 2.603716000000000017e-02 9.390067549999999486e+00 1.286179170000000038e+00 2.525035850000000082e+00 9.388935180000000713e+00 2.838605279999999897e+00 3.070579999999999837e-03 1.366698109000000017e+01 4.116484999999999950e+00 2.535359730000000145e+00 6.827959589999999857e+00 2.061716160000000020e+00 1.260833599999999999e+00 1.109688180000000024e+01 3.347184030000000199e+00 3.796554389999999835e+00 1.109602791999999916e+01 4.894079999999999764e+00 1.271209620000000040e+00 1.534936435000000010e+01 6.177042690000000391e+00 3.791124229999999873e+00 1.195343066999999948e+01 2.060099689999999928e+00 1.258948050000000096e+00 1.622328090999999972e+01 3.347988650000000010e+00 3.784168390000000048e+00 1.623181015000000116e+01 4.896421519999999639e+00 1.259979109999999958e+00 2.049906461999999863e+01 6.179982640000000416e+00 3.777271460000000136e+00 3.419973090000000049e+00 1.020588169999999906e+00 6.435057299999999980e-01 7.665350189999999841e+00 2.308246159999999936e+00 3.157705720000000049e+00 7.679547509999999910e+00 3.862721339999999781e+00 6.126616700000000471e-01 1.194822594000000038e+01 5.150518400000000163e+00 3.145784350000000007e+00 8.523572370000000120e+00 1.024910870000000029e+00 6.497881500000000088e-01 1.279749115999999987e+01 2.315765170000000150e+00 3.132798479999999941e+00 1.280530846999999994e+01 3.863794529999999838e+00 6.044168800000000452e-01 1.707576622999999927e+01 5.151506470000000171e+00 3.156645940000000206e+00 1.024203952999999956e+01 3.092316499999999913e+00 1.895495909999999951e+00 1.450917163000000087e+01 4.371454579999999979e+00 4.403658130000000170e+00 1.450973529000000006e+01 5.924674719999999617e+00 1.913797610000000038e+00 1.877950232999999969e+01 7.213066180000000216e+00 4.418977360000000409e+00 1.537178229999999957e+01 3.097097139999999804e+00 1.891555810000000060e+00 1.963180342000000067e+01 4.377497339999999681e+00 4.428560349999999701e+00 1.963617312999999953e+01 5.923237900000000167e+00 1.895378309999999900e+00 2.390747027999999830e+01 7.207358659999999695e+00 4.390202190000000115e+00 4.541908000000000056e-02 1.909418200000000121e-01 -3.549247600000000058e-01 4.337731319999999613e+00 1.352660310000000088e+00 2.148297840000000125e+00 4.424065439999999683e+00 2.916464439999999936e+00 -3.545266000000000250e-01 8.705412420000000040e+00 4.202366959999999985e+00 2.182599399999999967e+00 5.310943459999999838e+00 9.181332999999999855e-02 -3.211093799999999998e-01 9.557776410000000666e+00 1.498716610000000005e+00 2.230584540000000171e+00 9.647173260000000639e+00 2.983090359999999830e+00 -2.660709399999999780e-01 1.385161629000000083e+01 4.187911940000000222e+00 2.187785229999999803e+00 6.636077039999999982e+00 1.830138739999999986e+00 1.524562600000000101e+00 1.095238445999999932e+01 3.298766300000000040e+00 4.166387109999999616e+00 1.087773834000000051e+01 4.702240790000000281e+00 1.546068449999999928e+00 1.507467763000000005e+01 6.026095279999999832e+00 4.039644009999999952e+00 1.172842705999999957e+01 2.012199509999999858e+00 1.586177249999999983e+00 1.603975330999999827e+01 3.201031159999999876e+00 4.107774810000000443e+00 1.606637020000000149e+01 4.852170039999999851e+00 1.621464140000000054e+00 2.029471364000000122e+01 5.985255139999999585e+00 4.060682609999999748e+00
-9.542999999999999942e-05 4.594299999999999838e-04 -5.333900000000000143e-04 4.267076359999999902e+00 1.287290819999999947e+00 2.532791319999999846e+00 4.265221819999999830e+00 2.833239809999999803e+00 -5.858679999999999791e-03 8.536859850000000804e+00 4.122733489999999890e+00 2.527952809999999939e+00 5.125498939999999948e+00 -5.590720000000000411e-03 -1.305820000000000071e-03 9.390377029999999792e+00 1.286716170000000048e+00 2.524890270000000214e+00 9.392210779999999204e+00 2.828960920000000101e+00 4.827109999999999908e-03 1.365677177000000064e+01 4.121611599999999598e+00 2.523238979999999909e+00 6.829265849999999638e+00 2.060366039999999899e+00 1.263067200000000057e+00 1.109666894000000070e+01 3.350115610000000022e+00 3.785608850000000025e+00 1.109684093000000082e+01 4.894317270000000164e+00 1.264334129999999945e+00 1.536301916999999939e+01 6.180679310000000370e+00 3.785654710000000200e+00 1.195224003000000046e+01 2.065064350000000104e+00 1.255872279999999952e+00 1.621987680000000154e+01 3.347292879999999915e+00 3.784753199999999929e+00 1.621880412000000149e+01 4.893300189999999716e+00 1.267847469999999976e+00 2.048836543000000177e+01 6.181313740000000223e+00 3.780387479999999911e+00 3.414932850000000020e+00 1.030314430000000003e+00 6.346358699999999908e-01 7.687950139999999877e+00 2.312215800000000154e+00 3.156812509999999961e+00 7.681862950000000190e+00 3.867405380000000115e+00 6.338877600000000223e-01 1.195334221000000063e+01 5.147930950000000117e+00 3.152744680000000077e+00 8.534100099999999856e+00 1.029237310000000072e+00 6.292449799999999538e-01 1.280533102999999961e+01 2.316682510000000139e+00 3.150463760000000057e+00 1.280492019000000070e+01 3.863737149999999954e+00 6.290509699999999871e-01 1.707629723000000155e+01 5.153943589999999908e+00 3.152593870000000020e+00 1.024252290000000087e+01 3.091163149999999860e+00 1.898100869999999940e+00 1.451728538999999962e+01 4.374138900000000163e+00 4.421455370000000329e+00 1.450779846999999911e+01 5.921951329999999736e+00 1.899449769999999926e+00 1.877826941000000005e+01 7.216345320000000285e+00 4.415685609999999706e+00 1.536633776999999945e+01 3.086639540000000181e+00 1.884676199999999913e+00 1.963425024000000008e+01 4.377192289999999986e+00 4.420732430000000157e+00 1.963528794000000133e+01 5.925411890000000348e+00 1.895347080000000073e+00 2.390525974999999903e+01 7.205046529999999727e+00 4.424116589999999682e+00 1.521407800000000032e-01 1.827173900000000073e-01 -3.224125199999999802e-01 4.419883809999999968e+00 1.507229949999999929e+00 2.235677429999999966e+00 4.380850289999999703e+00 3.027753859999999797e+00 -3.356985499999999845e-01 8.666111750000000669e+00 4.316990820000000006e+00 2.203055850000000149e+00 5.257551549999999629e+00 1.796285300000000085e-01 -3.303285200000000144e-01 9.515442249999999547e+00 1.429090799999999994e+00 2.172628780000000148e+00 9.528006460000000288e+00 2.951294079999999820e+00 -3.509735800000000072e-01 1.378611805999999973e+01 4.243420590000000381e+00 2.164864720000000187e+00 6.725916210000000284e+00 1.876324410000000054e+00 1.602842909999999899e+00 1.096093029000000030e+01 3.155761459999999907e+00 4.107791230000000127e+00 1.090698955999999953e+01 4.766033229999999676e+00 1.592205539999999919e+00 1.520820742999999986e+01 6.036996949999999806e+00 4.125343840000000206e+00 1.180984884999999984e+01 1.922488470000000005e+00 1.601410800000000023e+00 1.610646251000000007e+01 3.150313039999999898e+00 4.113897760000000403e+00 1.607419051000000110e+01 4.721924510000000019e+00 1.599083459999999901e+00 2.029184403000000003e+01 6.051399530000000304e+00 4.103654610000000424e+00