-1.662910727100000088e+02
-1.662916734099999871e+02
-1.661934992500000021e+02
-1.662207173300000136e+02
-1.662012713700000006e+02
-1.659190037699999891e+02
-1.662235521100000142e+02
-1.662951098300000012e+02
-1.659232793699999888e+02
-1.658763388300000088e+02
-1.659309138300000086e+02
-1.659562557700000127e+02
-1.662963734399999964e+02
-1.659099214899999879e+02
-1.659514357099999984e+02
-1.662126402499999926e+02
-1.659044421899999975e+02
-1.659986851699999875e+02
-1.662872098100000073e+02
-1.662019801799999925e+02
-1.660110165799999891e+02
-1.662089932400000123e+02
-1.659592993999999919e+02
-1.660067031899999961e+02
-1.662914436700000067e+02
-1.659956281999999987e+02
-1.662065498199999922e+02
-1.662134411600000021e+02
-1.662862973299999965e+02
-1.659054270100000110e+02
-1.662895659700000124e+02
-1.662896396300000106e+02
-1.662867661200000100e+02
-1.658797768599999927e+02
-1.662082398599999919e+02
-1.662232309100000123e+02
-1.661867195499999923e+02
-1.661976234599999884e+02
-1.662094807299999957e+02
-1.661987789000000078e+02
-1.659013943399999960e+02
-1.662080397500000117e+02
-1.661869700299999977e+02
-1.661918989199999999e+02
-1.659621074499999906e+02
-1.662259598100000062e+02
-1.662144799499999976e+02
-1.660428837800000110e+02
-1.661966196799999977e+02
-1.658641412700000046e+02
-1.662024801599999932e+02
-1.662094096600000057e+02
-1.659375793300000055e+02
-1.662290199599999880e+02
-1.661875416000000030e+02
-1.662880194500000073e+02
-1.662245700899999861e+02
-1.662848213499999872e+02
-1.662299196699999868e+02
-1.659254470200000071e+02
-1.658957411600000000e+02
-1.662096202600000083e+02
-1.657522448699999984e+02
-1.661853494000000069e+02
-1.662036033800000041e+02
-1.662897557000000006e+02
-1.662128411699999901e+02
-1.662898750500000062e+02
-1.662257660299999884e+02
-1.662132598599999938e+02
-1.662130005399999959e+02
-1.662073356399999966e+02
-1.662203851200000031e+02
-1.662339113600000076e+02
-1.659169763200000034e+02
-1.661842723000000035e+02
-1.661653710500000045e+02
-1.658893673899999897e+02
-1.662289100000000133e+02
-1.662146301399999970e+02
-1.659305469599999867e+02
-1.661916306599999871e+02
-1.662881051100000036e+02
-1.662269990700000051e+02
-1.662078300299999967e+02
-1.662914270199999862e+02
-1.659281758399999944e+02
-1.662168498999999997e+02
-1.662893650899999898e+02
-1.662280734500000108e+02
-1.662281514899999877e+02
-1.660002711099999999e+02
-1.662247204500000066e+02
-1.662880483099999935e+02
-1.662992732300000114e+02
-1.662885133700000040e+02
-1.662030901500000084e+02
-1.660631866600000137e+02
-1.658401993800000014e+02
-1.662890155800000116e+02
