-5.077970000000000227e-03 -1.793254000000000029e-02 -1.688597999999999835e-02 5.992250000000000180e-03 1.537189999999999911e-03 5.321147999999999850e-02 1.923261999999999888e-02 4.455029999999999581e-03 -9.408070999999999795e-02 7.422761999999999416e-02 5.284653000000000267e-02 -1.088141999999999929e-02 2.695938000000000154e-02 -8.118890000000000134e-03 -5.769669000000000186e-02 1.807784000000000127e-02 5.897269999999999596e-03 1.858160000000000020e-02 -1.134355000000000085e-02 4.755469999999999836e-02 -1.676576999999999928e-02 -1.181077999999999989e-02 3.320924000000000098e-02 -2.019000000000000016e-04 -1.618311999999999876e-02 4.100509999999999919e-03 -8.400009999999999422e-03 -2.644335999999999909e-02 2.188761999999999999e-02 -8.735486000000000639e-02 1.387226000000000084e-02 -5.535446000000000116e-02 -1.635551999999999839e-02 -4.474700000000000205e-02 -2.845030999999999949e-02 -5.654293999999999987e-02 -1.681136999999999909e-02 2.125435000000000171e-02 2.759495000000000003e-02 -2.767384000000000163e-02 1.062821000000000078e-02 -7.855189999999999742e-03 -2.797523000000000024e-02 -1.627978000000000064e-02 6.399892000000000081e-02 -8.435379999999999268e-03 5.965900000000000326e-04 -3.884301999999999894e-02 -1.911202999999999860e-02 6.997169999999999605e-03 2.752291999999999933e-02 -1.454013000000000007e-02 6.866399999999999934e-03 4.718477000000000088e-02 2.181048999999999835e-02 -1.194729999999999924e-02 4.144000000000000304e-05 -7.606810000000000307e-03 1.153971999999999984e-02 2.478438000000000169e-02 4.102839999999999959e-03 9.108099999999999183e-03 -5.469823000000000046e-02 3.739471999999999935e-02 -4.214045999999999764e-02 2.294059000000000029e-02 -8.729449999999999710e-03 1.465781000000000028e-02 4.825664000000000342e-02 -9.214089999999999434e-03 -3.789797000000000304e-02 5.395279000000000047e-02 -2.145259999999999962e-03 1.881398000000000098e-02 2.460340000000000096e-02 6.892977999999999605e-02 -1.571641999999999831e-02 4.481699999999999920e-03 1.323680000000000039e-03 -1.249547999999999978e-02 4.254455000000000042e-02 -5.618370000000000135e-03 -5.855769999999999725e-03 4.773737000000000119e-02 1.318400000000000117e-04 -6.981000000000000226e-03 4.911713000000000190e-02 1.601794999999999955e-02 -1.594436999999999938e-02 -5.277804999999999996e-02 -5.675030000000000178e-03 -2.193666000000000019e-02 4.177568000000000253e-02 -3.893049999999999983e-02 2.510095000000000035e-02 -7.899003000000000274e-02 -1.820049999999999923e-03 6.283140000000000426e-03 -1.034612000000000032e-02 -1.574000000000000095e-03 2.550849999999999906e-03 -2.500795999999999922e-02 1.059569999999999956e-02 -2.352649999999999967e-03 -1.297339999999999952e-02 -2.337510000000000109e-03 3.502499999999999754e-04 -1.700112000000000151e-02 1.079609999999999945e-03 -2.513000000000000043e-03 -2.508246000000000087e-02 9.147399999999999975e-03 -1.035850000000000052e-03 -1.038790000000000026e-02 2.650770000000000209e-03 -3.630609999999999827e-03 -1.680484000000000144e-02 1.181640000000000077e-03 1.023056999999999959e-02 -1.021196000000000083e-02 -5.625259999999999982e-03 -3.434369999999999958e-03 5.079659999999999731e-03 -1.031887000000000082e-02 -1.898771000000000139e-02 7.907640000000000502e-03 7.053699999999999770e-04 -9.020769999999999136e-03 9.144970000000000529e-03 -1.531395999999999973e-02 -1.383330999999999970e-02 5.891640000000000071e-03 -1.614470999999999962e-02 -1.367206999999999971e-02 4.610040000000000145e-03 -4.587130000000000027e-03 -1.798334000000000044e-02 6.309239999999999814e-03 -1.799289999999999917e-02 -1.049070000000000037e-02 5.985640000000000405e-03 -1.567626000000000089e-02 2.131500000000000040e-04 1.099043000000000068e-02
-1.730595999999999871e-02 -2.660155000000000158e-02 -4.998060000000000003e-02 4.287504000000000315e-02 -4.480060000000000119e-03 -7.869658999999999682e-02 -8.320710000000000259e-03 -7.306749999999999877e-03 1.388899999999999987e-03 -1.798258999999999969e-02 8.734499999999999209e-03 3.275502000000000274e-02 3.217351000000000238e-02 3.397449000000000302e-02 -3.915543999999999969e-02 -8.090545999999999849e-02 -2.827999999999999893e-04 9.478804000000000396e-02 -2.286656999999999926e-02 5.608533999999999742e-02 5.382188999999999723e-02 1.684099999999999952e-04 1.310093000000000021e-02 -7.981949999999999809e-03 -3.349880999999999692e-02 -4.111850999999999701e-02 1.374446999999999995e-02 -6.187200999999999812e-02 4.595260000000000317e-02 4.414707999999999827e-02 2.490911000000000167e-02 8.506579999999999697e-03 -3.954503000000000185e-02 -4.624658999999999714e-02 2.065602999999999884e-02 -7.318479999999999430e-02 2.200059000000000042e-02 1.036289999999999954e-02 -3.626233999999999708e-02 7.695670000000000288e-02 1.050036000000000025e-02 5.934177000000000202e-02 -1.857947999999999891e-02 5.813601999999999659e-02 2.028403999999999971e-02 -5.790889999999999926e-03 -2.928338000000000121e-02 1.132650500000000060e-01 -6.961079999999999698e-03 3.863714000000000037e-02 6.832422999999999969e-02 1.131478999999999992e-02 -1.698532000000000167e-02 -1.649190000000000031e-03 5.919602999999999671e-02 3.011898000000000006e-02 -4.502517000000000325e-02 -1.637314999999999951e-02 1.303216999999999917e-02 2.816077000000000163e-02 -1.310592000000000007e-02 -1.694377999999999856e-02 -2.200507000000000157e-02 6.900361000000000689e-02 -6.378349999999999645e-03 -1.223433999999999980e-02 -2.188485000000000083e-02 -2.437067000000000053e-02 -1.548674000000000057e-02 9.722299999999999692e-03 6.083950000000000295e-03 -3.801402000000000253e-02 1.485021000000000084e-02 -5.185553999999999858e-02 -6.733176999999999912e-02 -9.440800000000000277e-04 -5.841820999999999819e-02 1.915992000000000042e-02 1.846323000000000061e-02 1.635535000000000114e-02 2.606092999999999951e-02 -5.255367999999999845e-02 -5.530103000000000102e-02 -3.554245999999999794e-02 -1.150960000000000004e-02 -2.993105000000000071e-02 -6.223399999999999809e-04 8.064105000000000578e-02 -1.775822000000000164e-02 1.207224999999999965e-02 1.151535000000000059e-02 2.998641000000000154e-02 -3.114362000000000033e-02 -3.708849000000000173e-02 -1.320851999999999964e-02 6.547120000000000023e-03 1.211501000000000071e-02 9.336809999999999207e-03 -9.208910000000000706e-03 4.317279999999999729e-03 -1.513149999999999998e-03 -1.750627999999999906e-02 -1.025220000000000081e-03 1.553909999999999927e-03 -1.817066000000000167e-02 4.595560000000000270e-03 6.232230000000000061e-03 -6.677380000000000121e-03 1.277636000000000049e-02 4.747430000000000400e-03 -9.334300000000000236e-03 3.710090000000000089e-03 -5.434199999999999708e-04 -1.339437999999999913e-02 7.872699999999999837e-03 -2.269590000000000149e-03 -1.516027000000000000e-02 4.241769999999999742e-03 9.183530000000000512e-03 -7.458659999999999769e-03 -5.294270000000000226e-03 -5.239609999999999580e-03 7.636429999999999607e-03 -5.732710000000000236e-03 -2.395322000000000076e-02 9.964390000000000053e-03 -9.589020000000000182e-03 -3.227920000000000008e-03 6.933370000000000331e-03 4.300550000000000206e-03 -1.752620000000000089e-03 1.754040999999999934e-02 -1.532029999999999980e-03 -4.587400000000000158e-03 7.458450000000000149e-03 -5.556550000000000378e-03 -2.046432999999999933e-02 8.940290000000000042e-03 -2.594690000000000191e-03 -5.613029999999999756e-03 6.864050000000000012e-03 3.522690000000000196e-03 3.999300000000000012e-04 2.315185999999999980e-02
-6.188199999999999951e-02 1.203349999999999975e-01 -5.054899999999999671e-02 -1.735300000000000037e-02 4.417700000000000099e-02 7.735100000000000309e-02 2.257299999999999932e-02 1.348799999999999999e-02 -7.328000000000000312e-03 6.521599999999999620e-02 1.928200000000000053e-02 8.988699999999999468e-02 -9.294299999999999784e-02 -4.580000000000000043e-02 6.386600000000000610e-02 -1.109409999999999979e-01 1.920580000000000065e-01 -1.479620000000000102e-01 8.410000000000000808e-03 1.300699999999999946e-02 6.404600000000000570e-02 -2.066000000000000128e-03 5.777800000000000297e-02 -3.409100000000000324e-02 -1.503869999999999929e-01 -1.221190000000000053e-01 -9.003300000000000192e-02 -4.989000000000000379e-03 1.078599999999999975e-01 -9.860700000000000021e-02 3.513000000000000064e-03 -1.824100000000000027e-02 6.574099999999999389e-02 5.971300000000000219e-02 -9.393200000000000160e-02 1.016780000000000045e-01 -9.942600000000000049e-02 1.275799999999999990e-01 -1.395099999999999986e-02 -6.762999999999999914e-03 6.152799999999999936e-02 2.760599999999999860e-02 -2.021199999999999941e-01 3.879500000000000309e-02 2.824590000000000156e-01 1.585749999999999937e-01 -1.869049999999999878e-01 -1.679360000000000019e-01 3.474399999999999711e-02 2.571400000000000075e-02 -1.730900000000000147e-02 4.756400000000000211e-02 -8.431400000000000006e-02 2.467199999999999949e-02 6.279899999999999372e-02 -1.339180000000000093e-01 -1.641759999999999886e-01 -1.075580000000000008e-01 1.035009999999999958e-01 1.851939999999999975e-01 -5.172600000000000114e-02 -1.561099999999999988e-02 5.498499999999999915e-02 7.448499999999999566e-02 -2.037809999999999899e-01 -4.248299999999999993e-02 -2.384599999999999914e-02 -4.348999999999999568e-03 -1.525239999999999929e-01 -4.007200000000000345e-02 4.561500000000000277e-02 -1.351160000000000139e-01 -2.195099999999999829e-02 -2.233100000000000016e-02 -1.829799999999999829e-02 4.550099999999999978e-02 2.239829999999999877e-01 1.518150000000000055e-01 1.165349999999999997e-01 1.000660000000000022e-01 -1.955999999999999839e-03 8.125999999999999890e-02 -1.283469999999999889e-01 1.307030000000000136e-01 8.362799999999999401e-02 -1.741890000000000105e-01 -7.218299999999999716e-02 5.604599999999999860e-02 6.723500000000000310e-02 -9.698600000000000276e-02 4.688900000000000012e-02 -3.360300000000000092e-02 2.455469999999999875e-01 2.657100000000000087e-02 -9.456100000000000616e-02 -2.540629999999999833e-01 3.467800000000000049e-02 2.626699999999999868e-02 -2.435000000000000012e-02 9.988000000000000350e-03 3.610100000000000114e-02 -3.395999999999999713e-02 1.644999999999999934e-02 8.486999999999999753e-03 -4.085699999999999749e-02 3.390999999999999917e-03 3.476800000000000029e-02 -4.411999999999999950e-02 -5.445000000000000187e-03 2.690400000000000083e-02 -2.519300000000000012e-02 1.336999999999999994e-02 -1.221999999999999996e-03 -1.949599999999999944e-02 7.714999999999999636e-03 1.458500000000000074e-02 -2.634000000000000057e-03 2.059499999999999872e-02 2.019299999999999914e-02 -5.487999999999999823e-03 -1.059000000000000045e-03 -4.675999999999999601e-03 3.734400000000000219e-02 -1.771400000000000058e-02 -2.739999999999999923e-04 3.454700000000000132e-02 -2.805399999999999908e-02 -3.551399999999999696e-02 3.268800000000000178e-02 -3.071000000000000119e-02 -1.461000000000000059e-03 4.004300000000000220e-02 -2.964200000000000168e-02 1.363999999999999978e-03 3.287700000000000344e-02 3.151000000000000155e-03 -8.715000000000000524e-03 9.898000000000000548e-03 -3.880000000000000202e-03 3.693999999999999801e-03 2.672499999999999876e-02 1.131000000000000061e-03 -1.301000000000000073e-02 4.219099999999999934e-02
-8.067000000000000559e-02 -6.410200000000000620e-02 3.539699999999999791e-02 1.637250000000000094e-01 8.030800000000000438e-02 -3.806600000000000261e-02 4.086700000000000055e-02 -1.965599999999999986e-02 5.365700000000000330e-02 -1.188990000000000047e-01 -1.957409999999999983e-01 -2.780400000000000094e-01 1.111990000000000062e-01 1.444850000000000023e-01 1.515459999999999863e-01 -4.152299999999999741e-02 1.925100000000000075e-02 -3.258400000000000185e-02 -1.229029999999999984e-01 -1.930600000000000024e-02 2.248819999999999986e-01 -7.795699999999999852e-02 -1.011269999999999947e-01 -1.521000000000000000e-03 1.212089999999999973e-01 -1.368300000000000072e-02 7.870699999999999918e-02 1.727470000000000117e-01 -3.884599999999999859e-02 -1.168209999999999943e-01 -6.174799999999999733e-02 1.722039999999999960e-01 -2.024999999999999890e-03 -1.415000000000000025e-03 1.117640000000000022e-01 -6.056999999999999884e-03 6.960000000000000041e-03 2.379000000000000038e-03 -2.913700000000000179e-01 7.693600000000000438e-02 -1.161700000000000059e-02 -4.659499999999999753e-02 -4.468300000000000050e-02 -1.804499999999999854e-02 2.086409999999999931e-01 -8.422799999999999732e-02 -1.520799999999999930e-02 1.016839999999999966e-01 9.677700000000000191e-02 -6.531999999999999612e-03 6.236799999999999983e-02 5.022999999999999687e-02 1.605000000000000090e-03 6.254700000000000537e-02 2.346949999999999870e-01 9.769999999999999518e-02 -1.126970000000000055e-01 1.261900000000000001e-02 5.148999999999999931e-03 -3.173299999999999732e-02 1.583400000000000085e-02 1.477299999999999967e-02 -1.342109999999999970e-01 -1.725300000000000097e-02 2.142499999999999960e-02 9.337800000000000267e-02 6.531900000000000206e-02 -6.194100000000000300e-02 -2.077630000000000032e-01 3.207399999999999834e-02 2.936899999999999927e-02 -1.460079999999999989e-01 -7.219299999999999329e-02 8.172799999999999510e-02 2.195139999999999869e-01 -2.035369999999999957e-01 -1.503490000000000104e-01 6.918299999999999450e-02 1.062089999999999979e-01 -3.501999999999999905e-03 -2.177109999999999879e-01 4.014199999999999713e-02 -3.917199999999999849e-02 -5.594600000000000267e-02 -3.097500000000000253e-01 3.515499999999999875e-02 -1.065519999999999939e-01 1.311849999999999961e-01 1.419169999999999876e-01 4.916100000000000331e-02 -9.827400000000000024e-02 -1.467459999999999876e-01 2.086199999999999999e-01 -1.436969999999999914e-01 -5.363699999999999718e-02 2.064149999999999874e-01 9.634999999999999468e-03 2.783899999999999916e-02 -1.417500000000000010e-02 2.660000000000000038e-03 2.600699999999999887e-02 -1.187599999999999940e-02 1.592000000000000012e-02 1.157700000000000048e-02 -1.454399999999999964e-02 -3.371999999999999997e-03 2.834000000000000147e-03 -9.336000000000000548e-03 1.405200000000000025e-02 1.271500000000000061e-02 -7.721999999999999698e-03 1.895200000000000010e-02 1.374200000000000074e-02 -1.536099999999999965e-02 1.332400000000000077e-02 1.950599999999999903e-02 -7.190000000000000210e-03 8.326999999999999333e-03 1.473400000000000057e-02 -3.998999999999999951e-03 -7.066000000000000232e-03 2.820000000000000024e-03 1.677299999999999972e-02 -1.879999999999999944e-03 3.240999999999999957e-03 2.975099999999999967e-02 -1.978000000000000157e-03 -2.778999999999999786e-03 3.386999999999999820e-03 -4.237999999999999580e-03 -7.730000000000000326e-04 1.089299999999999990e-02 2.167999999999999788e-03 -1.833999999999999910e-03 1.233599999999999974e-02 5.441999999999999789e-03 -2.188999999999999974e-02 4.176599999999999757e-02 -4.764000000000000005e-03 4.581000000000000003e-03 1.979500000000000010e-02 -3.321999999999999866e-03 2.576000000000000165e-03 3.275499999999999939e-02
1.123500000000000054e-01 -5.074700000000000044e-02 1.576740000000000086e-01 -7.177400000000000446e-02 1.946499999999999966e-02 -4.995999999999999573e-03 -6.104300000000000004e-02 4.567299999999999832e-02 -2.080430000000000057e-01 5.099900000000000266e-02 -6.199099999999999749e-02 6.008999999999999585e-03 -1.544339999999999880e-01 -3.500299999999999939e-02 -1.469330000000000080e-01 1.990030000000000132e-01 2.241529999999999911e-01 -1.787899999999999906e-02 1.388689999999999924e-01 -6.249899999999999900e-02 1.048209999999999975e-01 -1.309410000000000018e-01 -5.759399999999999936e-02 6.111199999999999966e-02 1.760950000000000015e-01 -1.865149999999999864e-01 -1.702549999999999897e-01 -1.752499999999999891e-02 -1.576089999999999991e-01 -1.044140000000000068e-01 1.849590000000000123e-01 -4.970100000000000212e-02 -2.115819999999999923e-01 -4.229299999999999726e-02 -3.580599999999999755e-02 -1.363270000000000037e-01 -1.446830000000000060e-01 -2.513000000000000043e-03 1.518349999999999977e-01 -1.212990000000000040e-01 3.297800000000000037e-02 4.902200000000000307e-02 1.787100000000000077e-01 -4.726400000000000046e-02 1.306000000000000043e-02 -5.357300000000000256e-02 9.503499999999999448e-02 4.546749999999999958e-01 1.480000000000000066e-02 -3.842199999999999782e-02 1.715160000000000018e-01 -1.683679999999999899e-01 3.641799999999999898e-02 -1.591199999999999906e-02 -1.682240000000000124e-01 7.640800000000000369e-02 2.806790000000000118e-01 1.996670000000000111e-01 -1.140629999999999977e-01 -3.339400000000000007e-02 -1.621999999999999831e-02 5.171900000000000108e-02 -9.999399999999999955e-02 1.279879999999999907e-01 6.244000000000000244e-02 -1.235399999999999970e-01 -3.756500000000000117e-02 7.014900000000000302e-02 -8.610800000000000398e-02 -7.326000000000000567e-02 -1.322889999999999899e-01 -1.890590000000000048e-01 -5.315299999999999886e-02 -2.125799999999999912e-02 -1.432759999999999867e-01 8.146599999999999675e-02 1.919240000000000113e-01 1.500249999999999917e-01 -3.513700000000000156e-02 1.318539999999999990e-01 2.585979999999999945e-01 -7.675300000000000178e-02 6.713199999999999723e-02 6.480700000000000349e-02 3.028600000000000042e-02 -3.917000000000000343e-03 3.687599999999999906e-02 -6.307000000000000106e-03 7.791000000000000182e-03 -3.413800000000000168e-02 -1.450019999999999920e-01 1.437399999999999962e-02 -3.255620000000000180e-01 8.236200000000000465e-02 -7.032099999999999462e-02 9.070100000000000384e-02 3.640000000000000115e-04 3.115999999999999846e-03 -2.488200000000000134e-02 1.490200000000000032e-02 2.095000000000000074e-03 -3.335400000000000170e-02 -8.987000000000000197e-03 1.613999999999999983e-03 -1.598499999999999921e-02 -4.808999999999999907e-03 9.981999999999999554e-03 -1.417400000000000083e-02 1.094499999999999987e-02 3.334600000000000064e-02 -3.696699999999999986e-02 -8.014999999999999555e-03 5.236000000000000203e-03 -2.141200000000000048e-02 8.685000000000000012e-03 1.499499999999999965e-02 -1.209099999999999932e-02 1.686999999999999958e-02 3.462999999999999932e-03 -3.464799999999999824e-02 -1.718499999999999889e-02 -3.522600000000000037e-02 2.844299999999999953e-02 7.050000000000000060e-04 -1.239299999999999950e-02 2.797200000000000034e-02 -1.906100000000000155e-02 -6.983999999999999757e-03 1.213000000000000016e-02 -1.200799999999999958e-02 1.409000000000000096e-03 1.902000000000000045e-03 -3.707099999999999979e-02 -1.247099999999999945e-02 3.678900000000000226e-02 -1.764200000000000143e-02 -2.518999999999999972e-03 7.124000000000000124e-03 -1.276099999999999977e-02 -1.794499999999999915e-02 1.140900000000000074e-02 -3.742000000000000100e-03 -2.177999999999999815e-03 6.890000000000000508e-04
-2.827205899999999938e-01 1.280976400000000126e-01 2.363105500000000081e-01 -7.216192999999999913e-02 1.661015000000000130e-01 2.058362300000000089e-01 4.778789999999999774e-03 3.971380000000000049e-03 -8.254649000000000014e-02 1.814477300000000015e-01 -3.300378999999999813e-02 8.548540000000000305e-03 3.978534999999999711e-02 -3.296988699999999772e-01 3.638656900000000194e-01 8.731026000000000065e-02 2.288732199999999883e-01 -4.588780499999999818e-01 7.861511000000000193e-02 -1.326705900000000049e-01 1.084904700000000055e-01 1.027939600000000037e-01 -7.323472000000000315e-02 -4.505395999999999845e-01 2.388077299999999958e-01 -4.515278200000000242e-01 1.325409800000000027e-01 6.153179000000000287e-02 9.855499999999999677e-04 -1.412487799999999905e-01 8.958185999999999927e-02 -7.402259999999999916e-03 1.118992099999999990e-01 -4.451209999999999715e-03 -2.005900000000000131e-03 -6.221270999999999746e-02 -1.031658800000000015e-01 1.424951700000000043e-01 2.795588299999999804e-01 2.510408000000000084e-01 -1.649591400000000041e-01 5.709132000000000096e-02 -7.921116000000000268e-02 4.595434899999999989e-01 -3.083909699999999865e-01 8.246945999999999444e-02 -7.842728999999999673e-02 3.674116999999999661e-02 -1.580652000000000099e-02 -4.680929000000000340e-02 -2.553752100000000191e-01 -3.937005999999999839e-02 6.967607000000000661e-02 -2.891909999999999967e-02 6.999374999999999347e-02 -1.147293999999999953e-01 -8.516073000000000393e-02 -1.211918699999999932e-01 9.880672999999999540e-02 2.516183399999999959e-01 -1.340823399999999943e-01 4.681352999999999903e-02 9.006970999999999727e-02 -5.176909999999999845e-03 -7.732410000000000672e-02 6.513093999999999828e-02 4.542332999999999787e-02 9.118120000000000391e-02 -7.132294999999999607e-02 -2.701385000000000036e-01 -1.711398299999999928e-01 3.385427599999999981e-01 -9.649799000000000571e-02 -7.003977999999999593e-02 -1.609351699999999885e-01 2.647827999999999987e-02 1.045021700000000053e-01 7.964219999999999286e-03 1.667307100000000042e-01 -6.732172000000000156e-02 -1.923862299999999914e-01 5.438889000000000223e-02 -1.017796799999999974e-01 -2.720434999999999867e-02 -9.309916999999999498e-02 7.160344000000000431e-02 1.496430199999999877e-01 -1.492673499999999931e-01 1.829586400000000057e-01 -2.478876200000000030e-01 6.981772999999999452e-02 -4.783605999999999969e-02 -2.610830999999999916e-02 -1.846540600000000087e-01 1.743005300000000091e-01 1.552643099999999887e-01 8.339779999999999763e-03 1.299047000000000049e-02 -3.147722000000000020e-02 6.210195999999999772e-02 9.086718000000000572e-02 -1.244264699999999974e-01 3.593567999999999762e-02 1.674002000000000129e-02 -1.085513899999999976e-01 4.983354000000000256e-02 7.315440000000000310e-03 -1.287574200000000113e-01 5.289452000000000043e-02 -3.461890000000000019e-03 -1.376646800000000115e-01 4.329434000000000060e-02 1.156545999999999963e-02 -8.182995999999999326e-02 -8.151969999999999703e-03 -7.852279999999999677e-03 -4.241277999999999715e-02 8.311419999999999919e-03 1.275450000000000021e-02 -4.428817000000000170e-02 1.072872000000000062e-02 -2.412549999999999851e-03 7.797550000000000314e-03 3.764522000000000007e-02 -5.064511000000000013e-02 1.398573100000000125e-01 -1.709848700000000110e-01 -5.958207000000000086e-02 9.911685000000000634e-02 -1.939613799999999888e-01 -1.376698999999999978e-02 1.056793399999999966e-01 1.011579999999999988e-03 7.075879999999999670e-03 6.652716000000000185e-02 5.100770000000000130e-03 1.099087999999999975e-02 -3.924519999999999918e-03 -2.157157000000000172e-02 -4.120373000000000091e-02 5.232980000000000270e-02 2.370150000000000121e-03 -7.709439999999999696e-03 9.824729999999999575e-02
-9.351299999999999890e-02 -2.839099999999999957e-02 4.463700000000000306e-02 7.828899999999999748e-02 9.764899999999999969e-02 -8.007899999999999741e-02 6.802900000000000613e-02 9.520000000000000467e-04 -2.476099999999999829e-02 -6.373900000000000399e-02 -1.528500000000000136e-01 -1.501059999999999894e-01 -6.536000000000000143e-03 -1.686680000000000124e-01 -2.557760000000000034e-01 -2.959300000000000125e-02 3.664599999999999802e-02 4.314400000000000179e-02 -1.631799999999999917e-02 -2.919199999999999920e-02 1.002600000000000019e-02 -1.011900000000000022e-01 -1.374099999999999974e-02 -1.795279999999999931e-01 -1.838100000000000150e-02 4.400000000000000265e-03 4.397999999999999826e-02 4.185500000000000331e-02 -4.352799999999999725e-02 -8.031399999999999650e-02 1.720299999999999954e-02 -7.706499999999999462e-02 -1.356670000000000098e-01 1.670240000000000058e-01 2.426499999999999838e-02 -6.343799999999999439e-02 -2.862100000000000061e-02 4.558500000000000052e-02 1.762999999999999984e-02 -7.447999999999999760e-03 -1.726000000000000104e-02 1.777600000000000013e-02 -1.261980000000000046e-01 -4.200700000000000267e-02 8.004999999999999963e-03 -1.248220000000000024e-01 6.903600000000000014e-02 7.514300000000000146e-02 -2.589999999999999941e-02 9.178899999999999559e-02 -1.123809999999999948e-01 1.710339999999999916e-01 1.429690000000000127e-01 -1.064099999999999942e-02 5.350400000000000295e-02 2.502800000000000163e-02 1.933259999999999978e-01 2.619200000000000000e-02 -9.964499999999999746e-02 1.312919999999999920e-01 1.228469999999999979e-01 4.773800000000000265e-02 -1.708629999999999871e-01 5.014899999999999913e-02 6.975900000000000156e-02 2.214480000000000059e-01 5.109400000000000053e-02 3.959700000000000025e-02 2.025460000000000038e-01 2.062699999999999950e-02 -2.435400000000000065e-02 2.951499999999999957e-02 -3.543199999999999822e-02 1.289000000000000042e-02 3.189800000000000274e-02 -3.346699999999999675e-02 -1.040699999999999958e-02 2.173299999999999954e-01 1.672699999999999881e-02 -3.867400000000000004e-02 -1.974789999999999879e-01 1.975700000000000026e-02 1.309000000000000051e-03 -2.284000000000000006e-03 -2.942399999999999877e-02 -3.224599999999999689e-02 -7.530499999999999694e-02 2.038900000000000087e-02 -7.093000000000000346e-03 -4.783300000000000052e-02 -3.276099999999999846e-02 -2.716999999999999797e-03 -2.610499999999999973e-02 -1.513780000000000125e-01 7.822900000000000686e-02 3.248650000000000149e-01 3.143900000000000167e-02 2.270900000000000002e-02 -2.091499999999999956e-02 1.461400000000000025e-02 -4.224000000000000324e-03 -1.515000000000000071e-03 1.435200000000000017e-02 1.891999999999999932e-02 -7.696999999999999849e-03 2.482799999999999938e-02 1.024699999999999916e-02 -1.030000000000000013e-02 2.025400000000000117e-02 6.814999999999999877e-03 -6.368000000000000396e-03 1.169800000000000006e-02 -6.710000000000000469e-04 -1.144599999999999958e-02 8.772000000000000283e-03 -1.443000000000000055e-03 -4.638500000000000262e-02 1.558499999999999990e-02 2.957100000000000006e-02 -1.333400000000000037e-02 -7.035999999999999720e-03 -6.294000000000000115e-03 4.225099999999999689e-02 -1.519700000000000044e-02 -1.472200000000000071e-02 1.965700000000000086e-02 -2.609999999999999907e-03 -2.252000000000000095e-03 2.412299999999999861e-02 -4.370999999999999885e-03 9.470000000000000336e-04 3.738400000000000056e-02 3.376999999999999794e-03 -6.583999999999999575e-03 1.335500000000000055e-02 -3.828999999999999938e-03 -5.475999999999999965e-03 1.136999999999999990e-02 -1.287300000000000076e-02 -1.554700000000000006e-02 1.855300000000000005e-02 -4.889999999999999599e-04 -3.494999999999999843e-03 3.396899999999999920e-02
-1.424080000000000094e-03 -2.734734000000000123e-02 1.590650999999999871e-02 1.167856999999999923e-02 1.005124999999999942e-02 -1.012773500000000021e-01 3.834421999999999831e-02 -4.616552000000000155e-02 6.552576000000000234e-02 -2.027814000000000005e-02 -1.277494000000000025e-02 -2.948606000000000144e-02 -3.120167000000000079e-02 6.285010000000000596e-02 2.372745999999999883e-02 1.604838999999999918e-02 -5.261459999999999922e-03 2.120270000000000054e-03 -3.318122999999999906e-02 7.880275000000000474e-02 -4.440137000000000250e-02 4.165212000000000081e-02 -4.071711000000000080e-02 4.136530000000000241e-03 -1.290080000000000090e-03 -3.127439999999999994e-03 -6.166819999999999941e-03 1.656109000000000053e-02 -4.686666999999999916e-02 4.250380000000000130e-02 -1.107924000000000062e-02 1.850755000000000108e-02 -6.109939000000000342e-02 4.359480999999999773e-02 -5.643559999999999723e-03 5.581705000000000000e-02 8.615499999999999894e-03 -5.313902999999999682e-02 5.664948999999999679e-02 1.737705999999999973e-02 -2.323586000000000054e-02 4.907690000000000143e-03 1.456486000000000065e-02 -1.794940000000000077e-03 -5.000210000000000071e-02 -2.896498999999999949e-02 2.550608000000000042e-02 5.093374999999999986e-02 1.180654000000000078e-02 -9.988860000000000447e-03 -4.234559999999999713e-02 -7.164117999999999875e-02 5.643573000000000339e-02 -5.562250000000000354e-03 2.291392000000000082e-02 -3.299736999999999809e-02 -1.718191000000000163e-02 -3.615150999999999781e-02 2.286354000000000164e-02 3.251862999999999976e-02 2.350011999999999934e-02 9.080499999999999813e-04 1.054639999999999918e-03 7.335359999999999971e-03 7.984170000000000503e-03 4.351541999999999910e-02 -7.572409999999999905e-03 1.133572000000000052e-02 -2.820235999999999923e-02 -2.329178000000000151e-02 -4.438613000000000280e-02 5.961530999999999775e-02 1.269584999999999984e-02 9.773570000000000521e-03 -4.625469000000000108e-02 -4.345808000000000310e-02 -9.056269999999999945e-03 -4.004710999999999688e-02 1.750811999999999855e-02 1.200161999999999930e-02 -4.101702000000000126e-02 2.469363999999999934e-02 -5.225280000000000202e-02 4.519763999999999726e-02 -1.927330000000000102e-03 1.633489000000000121e-02 9.250838999999999590e-02 1.545740000000000091e-03 2.301053000000000126e-02 -1.985989000000000157e-02 4.664390000000000029e-03 2.522710000000000057e-03 -2.525227000000000027e-02 -2.363855999999999943e-02 5.586706999999999784e-02 -3.848214999999999969e-02 4.645039999999999586e-03 1.426940000000000023e-03 -1.312283000000000026e-02 1.621180000000000060e-03 -1.340849999999999985e-03 -1.404741999999999970e-02 1.078523999999999976e-02 9.674399999999999666e-04 -1.141265999999999982e-02 7.560700000000000059e-03 -4.282489999999999908e-03 -1.290000999999999995e-02 7.338130000000000000e-03 -2.261640000000000091e-03 -1.291372000000000006e-02 9.274700000000000305e-03 8.766150000000000331e-03 -7.068160000000000415e-03 6.059659999999999699e-03 1.619543999999999845e-02 -7.626789999999999611e-03 8.386809999999999751e-03 1.149206000000000012e-02 -7.343660000000000118e-03 -1.091253000000000015e-02 -2.843799999999999844e-04 1.157457999999999924e-02 -6.090019999999999809e-03 -1.584150000000000098e-03 1.129931999999999985e-02 4.956630000000000064e-03 -1.279395000000000011e-02 1.621181000000000011e-02 7.953000000000000596e-05 -1.349368999999999916e-02 8.130909999999999874e-03 -1.889290000000000067e-03 -1.298054000000000048e-02 6.159460000000000282e-03 -4.536459999999999972e-03 3.586600000000000118e-04 1.105533000000000037e-02 -4.298279999999999809e-03 -5.411850000000000167e-03 9.704040000000000582e-03 4.023320000000000368e-03 -8.602089999999999737e-03 1.398045000000000017e-02